
     Program PWSCF v.7.1 starts on 12Apr2023 at 23:14:41 

     This program is part of the open-source Quantum ESPRESSO suite
     for quantum simulation of materials; please cite
         "P. Giannozzi et al., J. Phys.:Condens. Matter 21 395502 (2009);
         "P. Giannozzi et al., J. Phys.:Condens. Matter 29 465901 (2017);
         "P. Giannozzi et al., J. Chem. Phys. 152 154105 (2020);
          URL http://www.quantum-espresso.org", 
     in publications or presentations arising from this work. More details at
     http://www.quantum-espresso.org/quote

     Parallel version (MPI), running on    20 processors

     MPI processes distributed on     1 nodes
     123501 MiB available memory on the printing compute node when the environment starts
 
     Waiting for input...
     Reading input from standard input

     Current dimensions of program PWSCF are:
     Max number of different atomic species (ntypx) = 10
     Max number of k-points (npk) =  40000
     Max angular momentum in pseudopotentials (lmaxx) =  4
     file Mo.rel-pbesol-spn-rrkjus_psl.1.0.0.UPF: wavefunction(s)  4S renormalized
     Message from routine setup:
     using ibrav=0 with symmetry is DISCOURAGED, use correct ibrav instead
 
     R & G space division:  proc/nbgrp/npool/nimage =      20
     Subspace diagonalization in iterative solution of the eigenvalue problem:
     a serial algorithm will be used

 
     Parallelization info
     --------------------
     sticks:   dense  smooth     PW     G-vecs:    dense   smooth      PW
     Min         139      61     17                39303    11628    1802
     Max         140      62     18                39309    11670    1824
     Sum        2793    1237    355               786139   233063   36323
 
     Using Slab Decomposition
 


     bravais-lattice index     =            0
     lattice parameter (alat)  =       6.0037  a.u.
     unit-cell volume          =    3710.8508 (a.u.)^3
     number of atoms/cell      =            6
     number of atomic types    =            2
     number of electrons       =        52.00
     number of Kohn-Sham states=           62
     kinetic-energy cutoff     =      60.0000  Ry
     charge density cutoff     =     540.0000  Ry
     scf convergence threshold =      1.0E-09
     mixing beta               =       0.1500
     number of iterations used =            8  plain     mixing
     energy convergence thresh.=      1.0E-05
     force convergence thresh. =      1.0E-04
     press convergence thresh. =      5.0E-02
     Exchange-correlation= PBESOL
                           (   1   4  10   8   0   0   0)
     nstep                     =          100

     Non magnetic calculation with spin-orbit


     celldm(1)=   6.003713  celldm(2)=   0.000000  celldm(3)=   0.000000
     celldm(4)=   0.000000  celldm(5)=   0.000000  celldm(6)=   0.000000

     crystal axes: (cart. coord. in units of alat)
               a(1) = (   1.000000   0.000000   0.000000 )  
               a(2) = (   0.000000   1.802996  -0.004946 )  
               a(3) = (   0.000000   0.118252   9.510518 )  

     reciprocal axes: (cart. coord. in units 2 pi/alat)
               b(1) = (  1.000000  0.000000  0.000000 )  
               b(2) = (  0.000000  0.554613 -0.006896 )  
               b(3) = (  0.000000  0.000288  0.105143 )  


     PseudoPot. # 1 for Mo read from file:
     ../pseudo/Mo.rel-pbesol-spn-rrkjus_psl.1.0.0.UPF
     MD5 check sum: 2a71075dbdc10d7c87e777441ebc52e9
     Pseudo is Ultrasoft + core correction, Zval = 14.0
     Generated using &quot;atomic&quot; code by A. Dal Corso  v.6.3
     Using radial grid of 1229 points, 10 beta functions with: 
                l(1) =   0
                l(2) =   0
                l(3) =   1
                l(4) =   1
                l(5) =   1
                l(6) =   1
                l(7) =   2
                l(8) =   2
                l(9) =   2
               l(10) =   2
     Q(r) pseudized with 0 coefficients 


     PseudoPot. # 2 for S  read from file:
     ../pseudo/S.rel-pbesol-n-rrkjus_psl.1.0.0.UPF
     MD5 check sum: 2be74dc3b309dcd3afce4488546c448e
     Pseudo is Ultrasoft + core correction, Zval =  6.0
     Generated using &quot;atomic&quot; code by A. Dal Corso  v.6.3
     Using radial grid of 1151 points, 10 beta functions with: 
                l(1) =   0
                l(2) =   0
                l(3) =   1
                l(4) =   1
                l(5) =   1
                l(6) =   1
                l(7) =   2
                l(8) =   2
                l(9) =   2
               l(10) =   2
     Q(r) pseudized with 0 coefficients 


     atomic species   valence    mass     pseudopotential
        Mo            14.00    95.95000     Mo( 1.00)
        S              6.00    32.07000     S ( 1.00)

      2 Sym. Ops. (no inversion) found



   Cartesian axes

     site n.     atom                  positions (alat units)
         1           Mo  tau(   1) = (   0.5000000   0.8246420   5.5834748  )
         2           Mo  tau(   2) = (   0.0000000   0.1120948   5.6352090  )
         3           S   tau(   3) = (   0.5000000   0.3215442   6.1563042  )
         4           S   tau(   4) = (   0.0000000   1.2297930   6.0243419  )
         5           S   tau(   5) = (   0.0000000   0.6151962   5.0623796  )
         6           S   tau(   6) = (   0.5000000   1.5099362   5.1893965  )

     number of k points=    49  Marzari-Vanderbilt smearing, width (Ry)=  0.0200
                       cart. coord. in units 2pi/alat
        k(    1) = (   0.0000000   0.0000000   0.0000000), wk =   0.0069444
        k(    2) = (   0.0000000   0.0462178  -0.0005747), wk =   0.0138889
        k(    3) = (   0.0000000   0.0924356  -0.0011493), wk =   0.0138889
        k(    4) = (   0.0000000   0.1386534  -0.0017240), wk =   0.0138889
        k(    5) = (   0.0000000   0.1848712  -0.0022987), wk =   0.0138889
        k(    6) = (   0.0000000   0.2310889  -0.0028733), wk =   0.0138889
        k(    7) = (   0.0000000  -0.2773067   0.0034480), wk =   0.0069444
        k(    8) = (   0.0833333   0.0000000   0.0000000), wk =   0.0138889
        k(    9) = (   0.0833333   0.0462178  -0.0005747), wk =   0.0277778
        k(   10) = (   0.0833333   0.0924356  -0.0011493), wk =   0.0277778
        k(   11) = (   0.0833333   0.1386534  -0.0017240), wk =   0.0277778
        k(   12) = (   0.0833333   0.1848712  -0.0022987), wk =   0.0277778
        k(   13) = (   0.0833333   0.2310889  -0.0028733), wk =   0.0277778
        k(   14) = (   0.0833333  -0.2773067   0.0034480), wk =   0.0138889
        k(   15) = (   0.1666667   0.0000000   0.0000000), wk =   0.0138889
        k(   16) = (   0.1666667   0.0462178  -0.0005747), wk =   0.0277778
        k(   17) = (   0.1666667   0.0924356  -0.0011493), wk =   0.0277778
        k(   18) = (   0.1666667   0.1386534  -0.0017240), wk =   0.0277778
        k(   19) = (   0.1666667   0.1848712  -0.0022987), wk =   0.0277778
        k(   20) = (   0.1666667   0.2310889  -0.0028733), wk =   0.0277778
        k(   21) = (   0.1666667  -0.2773067   0.0034480), wk =   0.0138889
        k(   22) = (   0.2500000   0.0000000   0.0000000), wk =   0.0138889
        k(   23) = (   0.2500000   0.0462178  -0.0005747), wk =   0.0277778
        k(   24) = (   0.2500000   0.0924356  -0.0011493), wk =   0.0277778
        k(   25) = (   0.2500000   0.1386534  -0.0017240), wk =   0.0277778
        k(   26) = (   0.2500000   0.1848712  -0.0022987), wk =   0.0277778
        k(   27) = (   0.2500000   0.2310889  -0.0028733), wk =   0.0277778
        k(   28) = (   0.2500000  -0.2773067   0.0034480), wk =   0.0138889
        k(   29) = (   0.3333333   0.0000000   0.0000000), wk =   0.0138889
        k(   30) = (   0.3333333   0.0462178  -0.0005747), wk =   0.0277778
        k(   31) = (   0.3333333   0.0924356  -0.0011493), wk =   0.0277778
        k(   32) = (   0.3333333   0.1386534  -0.0017240), wk =   0.0277778
        k(   33) = (   0.3333333   0.1848712  -0.0022987), wk =   0.0277778
        k(   34) = (   0.3333333   0.2310889  -0.0028733), wk =   0.0277778
        k(   35) = (   0.3333333  -0.2773067   0.0034480), wk =   0.0138889
        k(   36) = (   0.4166667   0.0000000   0.0000000), wk =   0.0138889
        k(   37) = (   0.4166667   0.0462178  -0.0005747), wk =   0.0277778
        k(   38) = (   0.4166667   0.0924356  -0.0011493), wk =   0.0277778
        k(   39) = (   0.4166667   0.1386534  -0.0017240), wk =   0.0277778
        k(   40) = (   0.4166667   0.1848712  -0.0022987), wk =   0.0277778
        k(   41) = (   0.4166667   0.2310889  -0.0028733), wk =   0.0277778
        k(   42) = (   0.4166667  -0.2773067   0.0034480), wk =   0.0138889
        k(   43) = (  -0.5000000   0.0000000   0.0000000), wk =   0.0069444
        k(   44) = (  -0.5000000   0.0462178  -0.0005747), wk =   0.0138889
        k(   45) = (  -0.5000000   0.0924356  -0.0011493), wk =   0.0138889
        k(   46) = (  -0.5000000   0.1386534  -0.0017240), wk =   0.0138889
        k(   47) = (  -0.5000000   0.1848712  -0.0022987), wk =   0.0138889
        k(   48) = (  -0.5000000   0.2310889  -0.0028733), wk =   0.0138889
        k(   49) = (  -0.5000000  -0.2773067   0.0034480), wk =   0.0069444

     Dense  grid:   786139 G-vectors     FFT dimensions: (  45,  81, 432)

     Smooth grid:   233063 G-vectors     FFT dimensions: (  30,  54, 288)

     Estimated max dynamical RAM per process >     626.01 MB

     Estimated total dynamical RAM >      12.23 GB

     Initial potential from superposition of free atoms

     starting charge      51.9982, renormalised to      52.0000

     negative rho (up, down):  2.488E-04 0.000E+00
     Starting wfcs are   72 randomized atomic wfcs

     total cpu time spent up to now is       17.4 secs

     Self-consistent Calculation

     iteration #  1     ecut=    60.00 Ry     beta= 0.15
     Davidson diagonalization with overlap
     ethr =  1.00E-02,  avg # of iterations =  2.0

     Threshold (ethr) on eigenvalues was too large:
     Diagonalizing with lowered threshold

     Davidson diagonalization with overlap
     ethr =  3.10E-04,  avg # of iterations =  3.7

     negative rho (up, down):  2.481E-04 0.000E+00

     total cpu time spent up to now is      114.6 secs

     total energy              =    -363.17033555 Ry
     estimated scf accuracy    <       0.24877395 Ry

     iteration #  2     ecut=    60.00 Ry     beta= 0.15
     Davidson diagonalization with overlap
     ethr =  4.78E-04,  avg # of iterations =  1.0

     negative rho (up, down):  2.606E-04 0.000E+00

     total cpu time spent up to now is      154.8 secs

     total energy              =    -363.14157702 Ry
     estimated scf accuracy    <       0.11175060 Ry

     iteration #  3     ecut=    60.00 Ry     beta= 0.15
     Davidson diagonalization with overlap
     ethr =  2.15E-04,  avg # of iterations =  2.0

     negative rho (up, down):  2.959E-04 0.000E+00

     total cpu time spent up to now is      200.6 secs

     total energy              =    -363.14293707 Ry
     estimated scf accuracy    <       0.02857028 Ry

     iteration #  4     ecut=    60.00 Ry     beta= 0.15
     Davidson diagonalization with overlap
     ethr =  5.49E-05,  avg # of iterations =  2.1

     negative rho (up, down):  3.656E-04 0.000E+00

     total cpu time spent up to now is      245.5 secs

     total energy              =    -363.14447918 Ry
     estimated scf accuracy    <       0.00785440 Ry

     iteration #  5     ecut=    60.00 Ry     beta= 0.15
     Davidson diagonalization with overlap
     ethr =  1.51E-05,  avg # of iterations =  5.0

     negative rho (up, down):  3.728E-04 0.000E+00

     total cpu time spent up to now is      297.7 secs

     total energy              =    -363.14419335 Ry
     estimated scf accuracy    <       0.01338550 Ry

     iteration #  6     ecut=    60.00 Ry     beta= 0.15
     Davidson diagonalization with overlap
     ethr =  1.51E-05,  avg # of iterations =  2.0

     negative rho (up, down):  3.617E-04 0.000E+00

     total cpu time spent up to now is      344.2 secs

     total energy              =    -363.14509216 Ry
     estimated scf accuracy    <       0.00101804 Ry

     iteration #  7     ecut=    60.00 Ry     beta= 0.15
     Davidson diagonalization with overlap
     ethr =  1.96E-06,  avg # of iterations =  6.4

     negative rho (up, down):  3.393E-04 0.000E+00

     total cpu time spent up to now is      398.7 secs

     total energy              =    -363.14532162 Ry
     estimated scf accuracy    <       0.00019391 Ry

     iteration #  8     ecut=    60.00 Ry     beta= 0.15
     Davidson diagonalization with overlap
     ethr =  3.73E-07,  avg # of iterations =  2.0

     negative rho (up, down):  3.237E-04 0.000E+00

     total cpu time spent up to now is      443.7 secs

     total energy              =    -363.14535301 Ry
     estimated scf accuracy    <       0.00002060 Ry

     iteration #  9     ecut=    60.00 Ry     beta= 0.15
     Davidson diagonalization with overlap
     ethr =  3.96E-08,  avg # of iterations =  2.4

     negative rho (up, down):  3.109E-04 0.000E+00

     total cpu time spent up to now is      488.0 secs

     total energy              =    -363.14534909 Ry
     estimated scf accuracy    <       0.00002952 Ry

     iteration # 10     ecut=    60.00 Ry     beta= 0.15
     Davidson diagonalization with overlap
     ethr =  3.96E-08,  avg # of iterations =  2.0

     negative rho (up, down):  2.996E-04 0.000E+00

     total cpu time spent up to now is      533.6 secs

     total energy              =    -363.14534870 Ry
     estimated scf accuracy    <       0.00001394 Ry

     iteration # 11     ecut=    60.00 Ry     beta= 0.15
     Davidson diagonalization with overlap
     ethr =  2.68E-08,  avg # of iterations =  1.6

     negative rho (up, down):  2.914E-04 0.000E+00

     total cpu time spent up to now is      574.9 secs

     total energy              =    -363.14534898 Ry
     estimated scf accuracy    <       0.00000307 Ry

     iteration # 12     ecut=    60.00 Ry     beta= 0.15
     Davidson diagonalization with overlap
     ethr =  5.91E-09,  avg # of iterations =  4.2

     negative rho (up, down):  2.852E-04 0.000E+00

     total cpu time spent up to now is      623.5 secs

     total energy              =    -363.14534921 Ry
     estimated scf accuracy    <       0.00000068 Ry

     iteration # 13     ecut=    60.00 Ry     beta= 0.15
     Davidson diagonalization with overlap
     ethr =  1.31E-09,  avg # of iterations =  2.7

     negative rho (up, down):  2.808E-04 0.000E+00

     total cpu time spent up to now is      671.1 secs

     total energy              =    -363.14534942 Ry
     estimated scf accuracy    <       0.00000004 Ry

     iteration # 14     ecut=    60.00 Ry     beta= 0.15
     Davidson diagonalization with overlap
     c_bands:  1 eigenvalues not converged
     ethr =  8.24E-11,  avg # of iterations =  4.8

     negative rho (up, down):  2.777E-04 0.000E+00

     total cpu time spent up to now is      722.5 secs

     total energy              =    -363.14534943 Ry
     estimated scf accuracy    <       0.00000002 Ry

     iteration # 15     ecut=    60.00 Ry     beta= 0.15
     Davidson diagonalization with overlap
     ethr =  4.64E-11,  avg # of iterations =  2.1

     negative rho (up, down):  2.754E-04 0.000E+00

     total cpu time spent up to now is      768.8 secs

     total energy              =    -363.14534945 Ry
     estimated scf accuracy    <          5.7E-09 Ry

     iteration # 16     ecut=    60.00 Ry     beta= 0.15
     Davidson diagonalization with overlap
     ethr =  1.09E-11,  avg # of iterations =  3.8

     negative rho (up, down):  2.738E-04 0.000E+00

     total cpu time spent up to now is      818.3 secs

     total energy              =    -363.14534945 Ry
     estimated scf accuracy    <          9.1E-09 Ry

     iteration # 17     ecut=    60.00 Ry     beta= 0.15
     Davidson diagonalization with overlap
     ethr =  1.09E-11,  avg # of iterations =  2.0

     negative rho (up, down):  2.727E-04 0.000E+00

     total cpu time spent up to now is      864.6 secs

     total energy              =    -363.14534945 Ry
     estimated scf accuracy    <          1.1E-09 Ry

     iteration # 18     ecut=    60.00 Ry     beta= 0.15
     Davidson diagonalization with overlap
     ethr =  2.09E-12,  avg # of iterations =  2.6

     negative rho (up, down):  2.707E-04 0.000E+00

     total cpu time spent up to now is      912.4 secs

     End of self-consistent calculation

          k = 0.0000 0.0000 0.0000 ( 29195 PWs)   bands (ev):

   -63.7064 -63.7064 -63.6056 -63.6056 -39.5971 -39.5971 -39.3944 -39.3944
   -37.2313 -37.2313 -36.9771 -36.9771 -36.9658 -36.9658 -36.7445 -36.7445
   -16.6783 -16.6783 -15.5959 -15.5959 -14.9291 -14.9291 -14.8048 -14.8048
    -8.6824  -8.6824  -8.0056  -8.0056  -7.2409  -7.2409  -7.1292  -7.1292
    -5.9950  -5.9950  -5.8891  -5.8891  -5.5119  -5.5119  -5.1290  -5.1290
    -4.5593  -4.5593  -3.9192  -3.9192  -3.6551  -3.6551  -3.1008  -3.1008
    -3.0005  -3.0005  -2.7539  -2.7539  -2.2270  -2.2270  -1.9253  -1.9253
    -0.6720  -0.6720  -0.3981  -0.3981   0.8414   0.8422

          k = 0.0000 0.0462-0.0006 ( 29197 PWs)   bands (ev):

   -63.7063 -63.7063 -63.6057 -63.6057 -39.5964 -39.5964 -39.3949 -39.3949
   -37.2298 -37.2298 -36.9773 -36.9773 -36.9659 -36.9659 -36.7461 -36.7461
   -16.6546 -16.6546 -15.5947 -15.5947 -14.9525 -14.9525 -14.8204 -14.8204
    -8.6528  -8.6528  -7.9538  -7.9538  -7.4276  -7.4276  -6.9109  -6.9109
    -5.9900  -5.9900  -5.8678  -5.8678  -5.6070  -5.6070  -5.1524  -5.1524
    -4.5150  -4.5150  -3.9204  -3.9204  -3.6721  -3.6721  -3.1490  -3.1490
    -3.0117  -3.0117  -2.8187  -2.8187  -2.2162  -2.2162  -1.9613  -1.9613
    -0.6573  -0.6573  -0.3778  -0.3778   0.7050   0.7050

          k = 0.0000 0.0924-0.0011 ( 29168 PWs)   bands (ev):

   -63.7059 -63.7059 -63.6060 -63.6060 -39.5944 -39.5944 -39.3964 -39.3964
   -37.2256 -37.2256 -36.9780 -36.9780 -36.9661 -36.9661 -36.7506 -36.7506
   -16.5845 -16.5845 -15.5933 -15.5933 -15.0348 -15.0348 -14.8479 -14.8479
    -8.5639  -8.5639  -7.8593  -7.8593  -7.5475  -7.5475  -6.6769  -6.6769
    -5.9727  -5.9727  -5.8318  -5.8318  -5.7964  -5.7964  -5.1931  -5.1931
    -4.4538  -4.4538  -3.9366  -3.9366  -3.7199  -3.7199  -3.2195  -3.2195
    -3.0982  -3.0982  -2.9689  -2.9689  -2.2179  -2.2179  -2.0419  -2.0419
    -0.6244  -0.6244  -0.3064  -0.3064   0.4719   0.4719

          k = 0.0000 0.1387-0.0017 ( 29171 PWs)   bands (ev):

   -63.7056 -63.7056 -63.6064 -63.6064 -39.5917 -39.5917 -39.3985 -39.3985
   -37.2197 -37.2197 -36.9790 -36.9790 -36.9664 -36.9664 -36.7567 -36.7567
   -16.4711 -16.4711 -15.6002 -15.6002 -15.1703 -15.1703 -14.8694 -14.8694
    -8.4189  -8.4189  -7.9039  -7.9039  -7.3949  -7.3949  -6.5883  -6.5883
    -6.0130  -6.0130  -5.9434  -5.9434  -5.7270  -5.7270  -5.1723  -5.1723
    -4.4882  -4.4882  -3.9744  -3.9744  -3.7879  -3.7879  -3.2618  -3.2618
    -3.2443  -3.2443  -3.1458  -3.1458  -2.2545  -2.2545  -2.1373  -2.1373
    -0.5841  -0.5841  -0.1789  -0.1789   0.2257   0.2257

          k = 0.0000 0.1849-0.0023 ( 29188 PWs)   bands (ev):

   -63.7052 -63.7052 -63.6068 -63.6068 -39.5889 -39.5889 -39.4007 -39.4007
   -37.2137 -37.2137 -36.9800 -36.9800 -36.9668 -36.9668 -36.7630 -36.7630
   -16.3201 -16.3201 -15.6410 -15.6410 -15.3129 -15.3129 -14.8856 -14.8856
    -8.2381  -8.2381  -7.9740  -7.9740  -7.1700  -7.1700  -6.6634  -6.6634
    -6.1068  -6.1068  -5.9100  -5.9100  -5.6418  -5.6418  -5.0503  -5.0503
    -4.6754  -4.6754  -3.9774  -3.9774  -3.8568  -3.8568  -3.3946  -3.3946
    -3.3362  -3.3362  -3.2619  -3.2619  -2.3081  -2.3081  -2.2421  -2.2421
    -0.5254  -0.5254  -0.0313  -0.0313   0.0213   0.0213

          k = 0.0000 0.2311-0.0029 ( 29192 PWs)   bands (ev):

   -63.7049 -63.7049 -63.6071 -63.6071 -39.5868 -39.5868 -39.4024 -39.4024
   -37.2091 -37.2091 -36.9808 -36.9808 -36.9671 -36.9671 -36.7676 -36.7676
   -16.1400 -16.1400 -15.7609 -15.7609 -15.3967 -15.3967 -14.8966 -14.8966
    -8.1346  -8.1346  -7.9038  -7.9038  -7.2316  -7.2316  -6.5419  -6.5419
    -6.1597  -6.1597  -5.8825  -5.8825  -5.5746  -5.5746  -5.0826  -5.0826
    -4.7605  -4.7605  -3.9133  -3.9133  -3.8972  -3.8972  -3.5486  -3.5486
    -3.4641  -3.4641  -3.2847  -3.2847  -2.3699  -2.3699  -2.3168  -2.3168
    -0.4371  -0.4371  -0.1569  -0.1569   0.1202   0.1202

          k = 0.0000-0.2773 0.0034 ( 29200 PWs)   bands (ev):

   -63.7048 -63.7048 -63.6072 -63.6072 -39.5860 -39.5860 -39.4030 -39.4030
   -37.2073 -37.2073 -36.9811 -36.9811 -36.9673 -36.9673 -36.7693 -36.7693
   -15.9527 -15.9527 -15.9362 -15.9362 -15.4172 -15.4172 -14.9005 -14.9005
    -8.1322  -8.1322  -7.7733  -7.7733  -7.3747  -7.3747  -6.4034  -6.4034
    -6.1807  -6.1807  -5.8716  -5.8716  -5.5488  -5.5488  -5.2218  -5.2218
    -4.7036  -4.7036  -3.9235  -3.9235  -3.7922  -3.7922  -3.6885  -3.6885
    -3.5140  -3.5140  -3.2937  -3.2937  -2.4044  -2.4044  -2.3364  -2.3364
    -0.3601  -0.3601  -0.2526  -0.2526   0.1782   0.1782

          k = 0.0833 0.0000 0.0000 ( 29155 PWs)   bands (ev):

   -63.7033 -63.7033 -63.6060 -63.6060 -39.5977 -39.5977 -39.4019 -39.4019
   -37.2339 -37.2339 -36.9914 -36.9914 -36.9614 -36.9614 -36.7513 -36.7513
   -16.5967 -16.5967 -15.5634 -15.5634 -14.8841 -14.8841 -14.7962 -14.7962
    -8.5850  -8.5850  -7.9188  -7.9188  -7.2873  -7.2873  -7.1036  -7.1036
    -6.0745  -6.0745  -6.0389  -6.0389  -5.4527  -5.4527  -5.1188  -5.1188
    -4.7571  -4.7571  -4.0993  -4.0993  -3.4780  -3.4780  -3.3500  -3.3500
    -3.1998  -3.1998  -2.6606  -2.6606  -2.6093  -2.6093  -1.6541  -1.6541
    -0.4981  -0.4981  -0.3590  -0.3590   0.5279   0.5279

          k = 0.0833 0.0462-0.0006 ( 29178 PWs)   bands (ev):

   -63.7032 -63.7032 -63.6061 -63.6061 -39.5971 -39.5971 -39.4025 -39.4025
   -37.2325 -37.2325 -36.9918 -36.9917 -36.9613 -36.9613 -36.7528 -36.7528
   -16.5735 -16.5735 -15.5617 -15.5617 -14.9104 -14.9104 -14.8086 -14.8086
    -8.5533  -8.5533  -7.8652  -7.8652  -7.4443  -7.4443  -6.9218  -6.9218
    -6.0948  -6.0948  -6.0369  -6.0369  -5.4894  -5.4894  -5.1433  -5.1433
    -4.7374  -4.7374  -4.0997  -4.0997  -3.5482  -3.5482  -3.3299  -3.3299
    -3.2333  -3.2333  -2.7239  -2.7239  -2.5745  -2.5745  -1.6541  -1.6541
    -0.4901  -0.4901  -0.3657  -0.3657   0.4460   0.4460

          k = 0.0833 0.0924-0.0011 ( 29174 PWs)   bands (ev):

   -63.7030 -63.7030 -63.6064 -63.6064 -39.5952 -39.5952 -39.4040 -39.4040
   -37.2287 -37.2287 -36.9927 -36.9927 -36.9611 -36.9611 -36.7568 -36.7568
   -16.5049 -16.5049 -15.5587 -15.5587 -14.9990 -14.9990 -14.8286 -14.8286
    -8.4600  -8.4600  -7.7508  -7.7508  -7.5828  -7.5828  -6.6885  -6.6885
    -6.1765  -6.1765  -6.0383  -6.0383  -5.5559  -5.5559  -5.1738  -5.1738
    -4.6998  -4.6998  -4.1295  -4.1295  -3.6548  -3.6548  -3.4632  -3.4632
    -3.2062  -3.2062  -2.8040  -2.8040  -2.5680  -2.5680  -1.6865  -1.6865
    -0.4725  -0.4725  -0.3462  -0.3462   0.2978   0.2978

          k = 0.0833 0.1387-0.0017 ( 29156 PWs)   bands (ev):

   -63.7026 -63.7026 -63.6067 -63.6067 -39.5926 -39.5926 -39.4060 -39.4060
   -37.2233 -37.2233 -36.9941 -36.9941 -36.9608 -36.9608 -36.7624 -36.7624
   -16.3940 -16.3940 -15.5612 -15.5612 -15.1392 -15.1392 -14.8460 -14.8460
    -8.3112  -8.3112  -7.8185  -7.8185  -7.4109  -7.4109  -6.5585  -6.5585
    -6.3069  -6.3069  -6.0388  -6.0388  -5.6220  -5.6220  -5.1148  -5.1148
    -4.6721  -4.6721  -4.2048  -4.2048  -3.8705  -3.8705  -3.5424  -3.5424
    -3.1963  -3.1963  -2.8873  -2.8873  -2.5780  -2.5780  -1.7909  -1.7909
    -0.4652  -0.4652  -0.2420  -0.2420   0.1356   0.1356

          k = 0.0833 0.1849-0.0023 ( 29174 PWs)   bands (ev):

   -63.7022 -63.7022 -63.6071 -63.6071 -39.5900 -39.5900 -39.4082 -39.4082
   -37.2178 -37.2178 -36.9956 -36.9956 -36.9606 -36.9606 -36.7681 -36.7681
   -16.2461 -16.2461 -15.5917 -15.5917 -15.2889 -15.2889 -14.8611 -14.8611
    -8.1308  -8.1308  -7.8914  -7.8914  -7.1530  -7.1530  -6.6761  -6.6761
    -6.3200  -6.3200  -6.0276  -6.0276  -5.6971  -5.6971  -4.9608  -4.9608
    -4.6741  -4.6741  -4.2795  -4.2795  -4.1268  -4.1268  -3.5599  -3.5599
    -3.2121  -3.2121  -3.0155  -3.0155  -2.5477  -2.5477  -1.9539  -1.9539
    -0.4467  -0.4467  -0.1020  -0.1020  -0.0039  -0.0039

          k = 0.0833 0.2311-0.0029 ( 29191 PWs)   bands (ev):

   -63.7019 -63.7019 -63.6074 -63.6074 -39.5880 -39.5880 -39.4098 -39.4098
   -37.2136 -37.2136 -36.9967 -36.9967 -36.9604 -36.9604 -36.7723 -36.7723
   -16.0698 -16.0698 -15.6997 -15.6997 -15.3803 -15.3803 -14.8718 -14.8718
    -8.0444  -8.0444  -7.7992  -7.7992  -7.1623  -7.1623  -6.6159  -6.6159
    -6.3257  -6.3257  -6.0632  -6.0632  -5.7426  -5.7426  -4.8761  -4.8761
    -4.6931  -4.6931  -4.3030  -4.3030  -4.2447  -4.2447  -3.5887  -3.5887
    -3.2402  -3.2402  -3.1518  -3.1518  -2.4813  -2.4813  -2.1217  -2.1217
    -0.3943  -0.3943  -0.1781  -0.1781   0.0805   0.0805

          k = 0.0833-0.2773 0.0034 ( 29202 PWs)   bands (ev):

   -63.7018 -63.7018 -63.6076 -63.6076 -39.5872 -39.5872 -39.4104 -39.4104
   -37.2121 -37.2121 -36.9971 -36.9971 -36.9603 -36.9603 -36.7739 -36.7739
   -15.8909 -15.8909 -15.8652 -15.8652 -15.4020 -15.4020 -14.8758 -14.8758
    -8.0464  -8.0464  -7.6526  -7.6526  -7.3139  -7.3139  -6.4286  -6.4286
    -6.3496  -6.3496  -6.1586  -6.1586  -5.7423  -5.7423  -4.9040  -4.9040
    -4.6848  -4.6848  -4.2949  -4.2949  -4.2398  -4.2398  -3.6142  -3.6142
    -3.2555  -3.2555  -3.2120  -3.2119  -2.4323  -2.4323  -2.2091  -2.2091
    -0.3247  -0.3247  -0.2746  -0.2746   0.1443   0.1443

          k = 0.1667 0.0000 0.0000 ( 29223 PWs)   bands (ev):

   -63.6948 -63.6948 -63.6075 -63.6075 -39.5991 -39.5991 -39.4237 -39.4237
   -37.2410 -37.2410 -37.0226 -37.0226 -36.9571 -36.9571 -36.7689 -36.7689
   -16.3609 -16.3609 -15.4750 -15.4750 -14.7798 -14.7798 -14.7550 -14.7550
    -8.3254  -8.3254  -7.7751  -7.7751  -7.3056  -7.3056  -7.0884  -7.0884
    -6.3207  -6.3207  -6.0176  -6.0176  -5.5188  -5.5188  -5.3887  -5.3887
    -5.1547  -5.1547  -4.3198  -4.3198  -4.2187  -4.2187  -3.4075  -3.4075
    -3.3167  -3.3167  -2.9063  -2.9063  -2.4420  -2.4420  -1.4901  -1.4901
    -0.2433  -0.2433  -0.1472  -0.1472   0.2284   0.2285

          k = 0.1667 0.0462-0.0006 ( 29194 PWs)   bands (ev):

   -63.6947 -63.6947 -63.6075 -63.6075 -39.5985 -39.5985 -39.4242 -39.4242
   -37.2399 -37.2399 -37.0231 -37.0231 -36.9567 -36.9567 -36.7699 -36.7699
   -16.3394 -16.3394 -15.4725 -15.4725 -14.8205 -14.8205 -14.7507 -14.7507
    -8.2878  -8.2878  -7.7505  -7.7505  -7.3801  -7.3801  -7.0024  -7.0024
    -6.3201  -6.3201  -6.0176  -6.0176  -5.5822  -5.5822  -5.3470  -5.3470
    -5.1464  -5.1464  -4.5214  -4.5214  -4.0389  -4.0389  -3.4388  -3.4388
    -3.3263  -3.3263  -2.9733  -2.9733  -2.3904  -2.3904  -1.4710  -1.4710
    -0.2752  -0.2752  -0.1499  -0.1499   0.0724   0.0724

          k = 0.1667 0.0924-0.0011 ( 29190 PWs)   bands (ev):

   -63.6944 -63.6944 -63.6078 -63.6078 -39.5969 -39.5969 -39.4256 -39.4256
   -37.2371 -37.2371 -37.0246 -37.0246 -36.9557 -36.9557 -36.7728 -36.7728
   -16.2758 -16.2758 -15.4659 -15.4659 -14.9176 -14.9176 -14.7569 -14.7569
    -8.1796  -8.1796  -7.7034  -7.7034  -7.4518  -7.4518  -6.8782  -6.8782
    -6.3302  -6.3302  -6.0385  -6.0385  -5.6920  -5.6920  -5.3006  -5.3006
    -5.0998  -5.0998  -4.7341  -4.7341  -3.8743  -3.8743  -3.5694  -3.5694
    -3.3184  -3.3184  -3.0844  -3.0844  -2.3079  -2.3079  -1.4604  -1.4604
    -0.3466  -0.3466  -0.1483  -0.1482  -0.0432  -0.0432

          k = 0.1667 0.1387-0.0017 ( 29174 PWs)   bands (ev):

   -63.6941 -63.6941 -63.6081 -63.6081 -39.5948 -39.5948 -39.4275 -39.4275
   -37.2330 -37.2330 -37.0267 -37.0267 -36.9543 -36.9543 -36.7769 -36.7769
   -16.1729 -16.1729 -15.4591 -15.4591 -15.0576 -15.0576 -14.7708 -14.7708
    -8.0141  -8.0141  -7.7138  -7.7138  -7.3842  -7.3842  -6.7876  -6.7876
    -6.4040  -6.4040  -6.0919  -6.0919  -5.8047  -5.8047  -5.2836  -5.2836
    -5.0336  -5.0336  -4.7921  -4.7921  -3.9306  -3.9306  -3.6377  -3.6377
    -3.2962  -3.2962  -3.1588  -3.1588  -2.2699  -2.2699  -1.5310  -1.5310
    -0.3793  -0.3793  -0.1361  -0.1361  -0.0891  -0.0890

          k = 0.1667 0.1849-0.0023 ( 29131 PWs)   bands (ev):

   -63.6937 -63.6937 -63.6084 -63.6084 -39.5925 -39.5925 -39.4295 -39.4295
   -37.2289 -37.2289 -37.0289 -37.0289 -36.9529 -36.9529 -36.7811 -36.7811
   -16.0357 -16.0357 -15.4642 -15.4642 -15.2172 -15.2172 -14.7864 -14.7864
    -7.8363  -7.8363  -7.7235  -7.7235  -7.2166  -7.2166  -6.7467  -6.7467
    -6.5937  -6.5937  -6.1124  -6.1124  -5.9339  -5.9339  -5.3280  -5.3280
    -4.9142  -4.9142  -4.6793  -4.6793  -4.1855  -4.1855  -3.5929  -3.5929
    -3.2753  -3.2753  -3.2137  -3.2137  -2.2783  -2.2783  -1.6707  -1.6707
    -0.3809  -0.3809  -0.1471  -0.1471  -0.0512  -0.0512

          k = 0.1667 0.2311-0.0029 ( 29117 PWs)   bands (ev):

   -63.6934 -63.6934 -63.6087 -63.6087 -39.5908 -39.5908 -39.4310 -39.4310
   -37.2258 -37.2258 -37.0305 -37.0305 -36.9518 -36.9518 -36.7842 -36.7842
   -15.8725 -15.8725 -15.5298 -15.5298 -15.3335 -15.3335 -14.7985 -14.7985
    -7.8211  -7.8211  -7.5231  -7.5231  -7.0536  -7.0536  -6.9003  -6.9003
    -6.6679  -6.6679  -6.1871  -6.1870  -5.9903  -5.9903  -5.3644  -5.3644
    -4.7997  -4.7997  -4.5481  -4.5481  -4.3712  -4.3712  -3.5742  -3.5742
    -3.2853  -3.2853  -3.2598  -3.2598  -2.2897  -2.2897  -1.8049  -1.8049
    -0.3935  -0.3935  -0.1684  -0.1684   0.0382   0.0382

          k = 0.1667-0.2773 0.0034 ( 29124 PWs)   bands (ev):

   -63.6933 -63.6933 -63.6088 -63.6088 -39.5902 -39.5902 -39.4316 -39.4316
   -37.2246 -37.2246 -37.0311 -37.0311 -36.9514 -36.9514 -36.7853 -36.7853
   -15.7214 -15.7214 -15.6615 -15.6615 -15.3595 -15.3595 -14.8031 -14.8031
    -7.8294  -7.8294  -7.3234  -7.3234  -7.1375  -7.1375  -6.9500  -6.9500
    -6.6461  -6.6461  -6.2684  -6.2684  -5.9784  -5.9784  -5.3746  -5.3746
    -4.7724  -4.7724  -4.5203  -4.5203  -4.3884  -4.3884  -3.5725  -3.5725
    -3.3025  -3.3025  -3.2795  -3.2795  -2.2888  -2.2888  -1.8615  -1.8615
    -0.4032  -0.4032  -0.1764  -0.1764   0.0900   0.0900

          k = 0.2500 0.0000 0.0000 ( 29159 PWs)   bands (ev):

   -63.6819 -63.6819 -63.6105 -63.6105 -39.5994 -39.5994 -39.4564 -39.4564
   -37.2490 -37.2490 -37.0682 -37.0682 -36.9479 -36.9479 -36.7920 -36.7920
   -15.9992 -15.9992 -15.3528 -15.3528 -14.7609 -14.7609 -14.5858 -14.5858
    -8.0286  -8.0286  -7.8336  -7.8336  -7.0830  -7.0830  -6.9949  -6.9949
    -6.6905  -6.6905  -6.0128  -6.0128  -5.8989  -5.8989  -5.6314  -5.6313
    -5.2266  -5.2266  -5.0819  -5.0819  -4.7929  -4.7929  -3.6898  -3.6898
    -3.3135  -3.3135  -3.1729  -3.1729  -2.0414  -2.0414  -1.3044  -1.3044
    -0.3264  -0.3264  -0.0067  -0.0067   0.2771   0.2774

          k = 0.2500 0.0462-0.0006 ( 29180 PWs)   bands (ev):

   -63.6818 -63.6818 -63.6106 -63.6106 -39.5990 -39.5990 -39.4569 -39.4569
   -37.2484 -37.2484 -37.0689 -37.0689 -36.9472 -36.9472 -36.7925 -36.7925
   -15.9812 -15.9812 -15.3494 -15.3494 -14.7855 -14.7855 -14.5917 -14.5917
    -8.0212  -8.0212  -7.7941  -7.7941  -7.0979  -7.0979  -7.0564  -7.0564
    -6.6012  -6.6012  -6.0467  -6.0467  -5.9120  -5.9120  -5.5821  -5.5821
    -5.3809  -5.3809  -5.1038  -5.1038  -4.6160  -4.6160  -3.6847  -3.6847
    -3.3653  -3.3653  -3.2087  -3.2087  -2.0123  -2.0123  -1.2836  -1.2836
    -0.3341  -0.3341   0.0027   0.0027   0.0620   0.0620

          k = 0.2500 0.0924-0.0011 ( 29160 PWs)   bands (ev):

   -63.6816 -63.6816 -63.6108 -63.6108 -39.5979 -39.5979 -39.4581 -39.4581
   -37.2467 -37.2467 -37.0708 -37.0708 -36.9454 -36.9454 -36.7940 -36.7940
   -15.9279 -15.9279 -15.3398 -15.3398 -14.8563 -14.8563 -14.6085 -14.6085
    -7.9880  -7.9880  -7.6913  -7.6913  -7.1725  -7.1725  -7.1079  -7.1079
    -6.4490  -6.4490  -6.1078  -6.1078  -5.9608  -5.9608  -5.7326  -5.7326
    -5.3670  -5.3670  -5.0926  -5.0925  -4.3688  -4.3688  -3.6666  -3.6666
    -3.5061  -3.5061  -3.2921  -3.2921  -1.9440  -1.9440  -1.2554  -1.2554
    -0.3522  -0.3522  -0.1084  -0.1084   0.0466   0.0466

          k = 0.2500 0.1387-0.0017 ( 29141 PWs)   bands (ev):

   -63.6813 -63.6813 -63.6110 -63.6110 -39.5963 -39.5963 -39.4598 -39.4598
   -37.2444 -37.2444 -37.0735 -37.0735 -36.9429 -36.9429 -36.7961 -36.7961
   -15.8420 -15.8420 -15.3261 -15.3261 -14.9653 -14.9653 -14.6325 -14.6325
    -7.9183  -7.9183  -7.5553  -7.5553  -7.2510  -7.2510  -7.1323  -7.1323
    -6.3442  -6.3442  -6.2094  -6.2094  -6.0800  -6.0800  -5.8987  -5.8987
    -5.2041  -5.2041  -5.0144  -5.0144  -4.2189  -4.2189  -3.6754  -3.6754
    -3.6050  -3.6050  -3.3890  -3.3890  -1.8897  -1.8897  -1.2767  -1.2767
    -0.3785  -0.3785  -0.1632  -0.1632   0.0903   0.0903

          k = 0.2500 0.1849-0.0023 ( 29133 PWs)   bands (ev):

   -63.6810 -63.6810 -63.6113 -63.6113 -39.5947 -39.5947 -39.4616 -39.4616
   -37.2420 -37.2420 -37.0762 -37.0762 -36.9404 -36.9404 -36.7982 -36.7982
   -15.7285 -15.7285 -15.3118 -15.3118 -15.1013 -15.1013 -14.6578 -14.6578
    -7.8138  -7.8138  -7.4374  -7.4374  -7.3054  -7.3054  -7.1139  -7.1139
    -6.4456  -6.4456  -6.3655  -6.3655  -6.1455  -6.1455  -5.8766  -5.8766
    -5.0810  -5.0810  -4.8733  -4.8733  -4.2398  -4.2398  -3.7329  -3.7329
    -3.5256  -3.5256  -3.4741  -3.4741  -1.8936  -1.8936  -1.3511  -1.3511
    -0.4181  -0.4181  -0.1100  -0.1100   0.1306   0.1306

          k = 0.2500 0.2311-0.0029 ( 29077 PWs)   bands (ev):

   -63.6808 -63.6808 -63.6115 -63.6115 -39.5934 -39.5934 -39.4630 -39.4630
   -37.2402 -37.2402 -37.0782 -37.0782 -36.9385 -36.9385 -36.7999 -36.7999
   -15.5965 -15.5965 -15.3037 -15.3037 -15.2463 -15.2463 -14.6770 -14.6770
    -7.6914  -7.6914  -7.4249  -7.4249  -7.3212  -7.3212  -7.0051  -7.0051
    -6.6612  -6.6612  -6.5043  -6.5043  -6.1317  -6.1317  -5.8067  -5.8067
    -5.0365  -5.0365  -4.7474  -4.7474  -4.3046  -4.3046  -3.7299  -3.7299
    -3.5404  -3.5404  -3.4385  -3.4385  -1.9374  -1.9374  -1.4310  -1.4310
    -0.4529  -0.4529   0.0009   0.0009   0.1504   0.1504

          k = 0.2500-0.2773 0.0034 ( 29078 PWs)   bands (ev):

   -63.6807 -63.6807 -63.6115 -63.6115 -39.5930 -39.5930 -39.4635 -39.4635
   -37.2395 -37.2395 -37.0789 -37.0789 -36.9377 -36.9377 -36.8005 -36.8005
   -15.4973 -15.4973 -15.3606 -15.3606 -15.2902 -15.2902 -14.6842 -14.6842
    -7.6138  -7.6138  -7.4644  -7.4644  -7.3192  -7.3192  -6.8646  -6.8646
    -6.8154  -6.8154  -6.5794  -6.5794  -6.1234  -6.1234  -5.7696  -5.7696
    -5.0413  -5.0413  -4.6984  -4.6984  -4.3212  -4.3212  -3.7230  -3.7230
    -3.5574  -3.5574  -3.4126  -3.4126  -1.9616  -1.9616  -1.4654  -1.4654
    -0.4670  -0.4670   0.0917   0.0917   0.1297   0.1297

          k = 0.3333 0.0000 0.0000 ( 29077 PWs)   bands (ev):

   -63.6665 -63.6665 -63.6160 -63.6160 -39.5959 -39.5959 -39.4949 -39.4949
   -37.2512 -37.2512 -37.1219 -37.1219 -36.9300 -36.9300 -36.8181 -36.8181
   -15.5645 -15.5645 -15.2208 -15.2208 -14.7576 -14.7576 -14.4409 -14.4409
    -7.8886  -7.8886  -7.8692  -7.8692  -7.4066  -7.4066  -6.7672  -6.7672
    -6.6438  -6.6438  -6.4326  -6.4326  -6.0867  -6.0867  -5.8646  -5.8646
    -5.4931  -5.4931  -5.1784  -5.1784  -4.9986  -4.9986  -4.0711  -4.0711
    -3.4922  -3.4922  -3.4444  -3.4444  -1.4842  -1.4842  -1.0244  -1.0244
    -0.3976  -0.3976  -0.0989  -0.0989   0.2187   0.2187

          k = 0.3333 0.0462-0.0006 ( 29096 PWs)   bands (ev):

   -63.6664 -63.6664 -63.6160 -63.6160 -39.5956 -39.5956 -39.4953 -39.4953
   -37.2511 -37.2511 -37.1227 -37.1227 -36.9292 -36.9292 -36.8181 -36.8181
   -15.5543 -15.5543 -15.2157 -15.2157 -14.7753 -14.7753 -14.4424 -14.4424
    -7.9915  -7.9915  -7.7909  -7.7909  -7.3557  -7.3557  -6.8794  -6.8794
    -6.6305  -6.6305  -6.3912  -6.3912  -6.0541  -6.0541  -5.9366  -5.9366
    -5.4605  -5.4605  -5.1849  -5.1849  -4.8776  -4.8776  -4.0597  -4.0597
    -3.5456  -3.5455  -3.4670  -3.4670  -1.4787  -1.4787  -1.0007  -1.0007
    -0.3978  -0.3978  -0.0842  -0.0842   0.1831   0.1831

          k = 0.3333 0.0924-0.0011 ( 29087 PWs)   bands (ev):

   -63.6663 -63.6663 -63.6162 -63.6162 -39.5950 -39.5950 -39.4963 -39.4963
   -37.2506 -37.2506 -37.1248 -37.1248 -36.9269 -36.9269 -36.8181 -36.8181
   -15.5245 -15.5245 -15.2021 -15.2021 -14.8221 -14.8221 -14.4500 -14.4500
    -8.0905  -8.0905  -7.7469  -7.7469  -7.2547  -7.2547  -6.9955  -6.9955
    -6.7260  -6.7260  -6.3202  -6.3202  -6.0886  -6.0886  -5.9471  -5.9471
    -5.3637  -5.3637  -5.1614  -5.1614  -4.6587  -4.6587  -4.0222  -4.0222
    -3.6585  -3.6585  -3.5443  -3.5443  -1.4606  -1.4606  -0.9601  -0.9601
    -0.3927  -0.3927  -0.0508  -0.0508   0.1429   0.1429

          k = 0.3333 0.1387-0.0017 ( 29115 PWs)   bands (ev):

   -63.6661 -63.6661 -63.6164 -63.6164 -39.5941 -39.5941 -39.4977 -39.4977
   -37.2499 -37.2499 -37.1276 -37.1276 -36.9238 -36.9238 -36.8183 -36.8183
   -15.4774 -15.4774 -15.1860 -15.1860 -14.8831 -14.8831 -14.4677 -14.4677
    -8.1539  -8.1539  -7.7337  -7.7337  -7.2918  -7.2918  -6.9276  -6.9276
    -6.8385  -6.8385  -6.3217  -6.3217  -6.2076  -6.2076  -5.8143  -5.8143
    -5.2558  -5.2558  -5.0905  -5.0905  -4.4906  -4.4906  -3.9587  -3.9587
    -3.7616  -3.7616  -3.6302  -3.6302  -1.4477  -1.4477  -0.9513  -0.9513
    -0.3811  -0.3811  -0.0128  -0.0128   0.1471   0.1471

          k = 0.3333 0.1849-0.0023 ( 29086 PWs)   bands (ev):

   -63.6659 -63.6659 -63.6166 -63.6166 -39.5932 -39.5932 -39.4992 -39.4992
   -37.2491 -37.2491 -37.1304 -37.1304 -36.9206 -36.9206 -36.8185 -36.8185
   -15.4169 -15.4169 -15.1812 -15.1812 -14.9388 -14.9388 -14.4932 -14.4932
    -8.1754  -8.1754  -7.7407  -7.7407  -7.4188  -7.4188  -6.9334  -6.9334
    -6.7483  -6.7483  -6.3526  -6.3526  -6.2750  -6.2750  -5.7183  -5.7183
    -5.1845  -5.1845  -5.0020  -5.0020  -4.4308  -4.4308  -3.9376  -3.9376
    -3.8039  -3.8039  -3.6038  -3.6038  -1.4706  -1.4706  -0.9873  -0.9873
    -0.3807  -0.3807   0.0542   0.0542   0.1916   0.1916

          k = 0.3333 0.2311-0.0029 ( 29090 PWs)   bands (ev):

   -63.6658 -63.6658 -63.6167 -63.6167 -39.5925 -39.5925 -39.5003 -39.5003
   -37.2486 -37.2486 -37.1325 -37.1325 -36.9182 -36.9182 -36.8187 -36.8187
   -15.3494 -15.3494 -15.2060 -15.2060 -14.9694 -14.9694 -14.5172 -14.5172
    -8.1657  -8.1657  -7.7647  -7.7647  -7.5166  -7.5166  -6.9952  -6.9952
    -6.5855  -6.5855  -6.3774  -6.3774  -6.3145  -6.3145  -5.6639  -5.6639
    -5.1935  -5.1935  -4.9106  -4.9106  -4.4451  -4.4451  -3.9744  -3.9744
    -3.7663  -3.7663  -3.5029  -3.5029  -1.5215  -1.5215  -1.0408  -1.0408
    -0.3903  -0.3903   0.1530   0.1530   0.2363   0.2363

          k = 0.3333-0.2773 0.0034 ( 29104 PWs)   bands (ev):

   -63.6658 -63.6658 -63.6168 -63.6168 -39.5922 -39.5922 -39.5007 -39.5007
   -37.2484 -37.2484 -37.1332 -37.1332 -36.9173 -36.9173 -36.8188 -36.8188
   -15.3014 -15.3014 -15.2415 -15.2415 -14.9762 -14.9762 -14.5273 -14.5273
    -8.1547  -8.1547  -7.7828  -7.7828  -7.5491  -7.5491  -7.0181  -7.0181
    -6.4971  -6.4971  -6.4106  -6.4106  -6.3248  -6.3248  -5.6431  -5.6431
    -5.2186  -5.2186  -4.8639  -4.8639  -4.4669  -4.4669  -3.9922  -3.9922
    -3.7313  -3.7313  -3.4592  -3.4592  -1.5488  -1.5488  -1.0667  -1.0667
    -0.3949  -0.3949   0.2099   0.2099   0.2507   0.2507

          k = 0.4167 0.0000 0.0000 ( 29094 PWs)   bands (ev):

   -63.6507 -63.6507 -63.6246 -63.6246 -39.5848 -39.5848 -39.5326 -39.5326
   -37.2411 -37.2411 -37.1738 -37.1738 -36.9049 -36.9049 -36.8464 -36.8464
   -15.1674 -15.1674 -15.1009 -15.1009 -14.7396 -14.7396 -14.4205 -14.4205
    -7.8764  -7.8764  -7.8585  -7.8585  -7.7032  -7.7032  -7.1645  -7.1645
    -6.6822  -6.6822  -6.5082  -6.5082  -6.1704  -6.1704  -5.8267  -5.8267
    -5.3690  -5.3690  -5.3064  -5.3064  -4.8950  -4.8950  -4.2874  -4.2874
    -3.7540  -3.7540  -3.7084  -3.7084  -0.9116  -0.9116  -0.7282  -0.7282
    -0.3700  -0.3700  -0.2987  -0.2987   0.1313   0.1313

          k = 0.4167 0.0462-0.0006 ( 29054 PWs)   bands (ev):

   -63.6507 -63.6507 -63.6246 -63.6246 -39.5848 -39.5848 -39.5329 -39.5329
   -37.2413 -37.2413 -37.1744 -37.1744 -36.9041 -36.9041 -36.8460 -36.8460
   -15.1826 -15.1826 -15.0879 -15.0879 -14.7428 -14.7428 -14.4135 -14.4135
    -8.0467  -8.0467  -7.7852  -7.7852  -7.7018  -7.7018  -7.1356  -7.1356
    -6.7613  -6.7613  -6.3531  -6.3531  -6.1903  -6.1903  -5.8286  -5.8286
    -5.4011  -5.4011  -5.2963  -5.2963  -4.7845  -4.7845  -4.2772  -4.2772
    -3.8181  -3.8181  -3.6954  -3.6954  -0.9277  -0.9277  -0.7026  -0.7026
    -0.3521  -0.3521  -0.2723  -0.2723   0.1673   0.1673

          k = 0.4167 0.0924-0.0011 ( 29043 PWs)   bands (ev):

   -63.6506 -63.6506 -63.6246 -63.6246 -39.5846 -39.5846 -39.5336 -39.5336
   -37.2418 -37.2418 -37.1763 -37.1763 -36.9018 -36.9018 -36.8449 -36.8449
   -15.2060 -15.2060 -15.0759 -15.0759 -14.7417 -14.7417 -14.3987 -14.3987
    -8.2511  -8.2511  -7.8296  -7.8296  -7.7160  -7.7160  -7.0675  -7.0675
    -6.7427  -6.7427  -6.2507  -6.2507  -6.1741  -6.1741  -5.8476  -5.8476
    -5.4104  -5.4104  -5.2114  -5.2114  -4.5982  -4.5982  -4.2491  -4.2491
    -3.9146  -3.9146  -3.7027  -3.7027  -0.9543  -0.9543  -0.6736  -0.6736
    -0.3024  -0.3024  -0.1990  -0.1990   0.2380   0.2380

          k = 0.4167 0.1387-0.0017 ( 29045 PWs)   bands (ev):

   -63.6505 -63.6505 -63.6247 -63.6247 -39.5845 -39.5845 -39.5346 -39.5346
   -37.2425 -37.2425 -37.1788 -37.1788 -36.8986 -36.8986 -36.8434 -36.8434
   -15.2215 -15.2215 -15.0867 -15.0867 -14.7210 -14.7210 -14.3872 -14.3872
    -8.4278  -8.4278  -8.0155  -8.0155  -7.6565  -7.6565  -7.0086  -7.0086
    -6.6276  -6.6276  -6.3288  -6.3288  -6.1187  -6.1187  -5.8247  -5.8247
    -5.3532  -5.3532  -5.0723  -5.0723  -4.4996  -4.4996  -4.2394  -4.2394
    -3.9229  -3.9229  -3.6864  -3.6864  -0.9871  -0.9871  -0.6838  -0.6838
    -0.2480  -0.2480  -0.0876  -0.0876   0.2695   0.2696

          k = 0.4167 0.1849-0.0023 ( 29037 PWs)   bands (ev):

   -63.6504 -63.6504 -63.6248 -63.6248 -39.5842 -39.5842 -39.5356 -39.5356
   -37.2432 -37.2431 -37.1813 -37.1813 -36.8954 -36.8954 -36.8420 -36.8420
   -15.2245 -15.2245 -15.1175 -15.1175 -14.6833 -14.6833 -14.3854 -14.3854
    -8.5540  -8.5540  -8.1995  -8.1995  -7.5850  -7.5850  -6.9643  -6.9643
    -6.5743  -6.5743  -6.3511  -6.3511  -6.1318  -6.1318  -5.7407  -5.7407
    -5.3244  -5.3244  -4.9217  -4.9217  -4.5029  -4.5029  -4.3210  -4.3210
    -3.7852  -3.7852  -3.5978  -3.5978  -1.0372  -1.0372  -0.7302  -0.7302
    -0.2124  -0.2124   0.0357   0.0357   0.3068   0.3068

          k = 0.4167 0.2311-0.0029 ( 29074 PWs)   bands (ev):

   -63.6503 -63.6503 -63.6249 -63.6249 -39.5841 -39.5841 -39.5364 -39.5364
   -37.2436 -37.2436 -37.1831 -37.1831 -36.8930 -36.8930 -36.8410 -36.8410
   -15.2138 -15.2138 -15.1550 -15.1550 -14.6464 -14.6464 -14.3914 -14.3914
    -8.6239  -8.6239  -8.3314  -8.3314  -7.5213  -7.5213  -6.9493  -6.9493
    -6.5994  -6.5994  -6.3143  -6.3143  -6.1403  -6.1403  -5.6237  -5.6237
    -5.3767  -5.3767  -4.7836  -4.7836  -4.5497  -4.5497  -4.4166  -4.4166
    -3.6354  -3.6354  -3.4866  -3.4866  -1.0933  -1.0933  -0.7866  -0.7866
    -0.1921  -0.1921   0.1267   0.1267   0.3635   0.3635

          k = 0.4167-0.2773 0.0034 ( 29058 PWs)   bands (ev):

   -63.6503 -63.6503 -63.6249 -63.6249 -39.5840 -39.5840 -39.5366 -39.5366
   -37.2438 -37.2438 -37.1837 -37.1837 -36.8922 -36.8922 -36.8406 -36.8406
   -15.1947 -15.1947 -15.1841 -15.1841 -14.6305 -14.6305 -14.3958 -14.3958
    -8.6446  -8.6446  -8.3801  -8.3801  -7.4941  -7.4941  -6.9531  -6.9531
    -6.6085  -6.6085  -6.3007  -6.3007  -6.1409  -6.1409  -5.5068  -5.5068
    -5.4740  -5.4740  -4.6704  -4.6704  -4.6406  -4.6405  -4.4457  -4.4457
    -3.5701  -3.5701  -3.4398  -3.4398  -1.1192  -1.1192  -0.8127  -0.8127
    -0.1848  -0.1848   0.1589   0.1589   0.3933   0.3933

          k =-0.5000 0.0000 0.0000 ( 29066 PWs)   bands (ev):

   -63.6363 -63.6363 -63.6363 -63.6363 -39.5637 -39.5637 -39.5637 -39.5637
   -37.2151 -37.2151 -37.2151 -37.2151 -36.8760 -36.8760 -36.8760 -36.8760
   -15.0342 -15.0342 -15.0342 -15.0342 -14.5747 -14.5747 -14.5747 -14.5747
    -7.9154  -7.9154  -7.9154  -7.9154  -7.5231  -7.5231  -7.5231  -7.5231
    -6.7656  -6.7656  -6.7656  -6.7656  -5.6790  -5.6790  -5.6790  -5.6790
    -5.5473  -5.5473  -5.5473  -5.5473  -4.5261  -4.5261  -4.5261  -4.5261
    -3.8549  -3.8549  -3.8549  -3.8549  -0.5914  -0.5914  -0.5914  -0.5914
    -0.4116  -0.4116  -0.4116  -0.4116   0.2389   0.2389

          k =-0.5000 0.0462-0.0006 ( 29068 PWs)   bands (ev):

   -63.6363 -63.6363 -63.6363 -63.6363 -39.5639 -39.5639 -39.5639 -39.5639
   -37.2157 -37.2157 -37.2154 -37.2154 -36.8755 -36.8755 -36.8752 -36.8752
   -15.0457 -15.0457 -15.0450 -15.0450 -14.5617 -14.5617 -14.5612 -14.5612
    -8.0033  -8.0033  -8.0005  -8.0005  -7.5133  -7.5133  -7.5093  -7.5093
    -6.6882  -6.6882  -6.6837  -6.6837  -5.7202  -5.7202  -5.7142  -5.7142
    -5.5317  -5.5317  -5.5072  -5.5072  -4.4913  -4.4913  -4.4683  -4.4683
    -3.8822  -3.8822  -3.8653  -3.8653  -0.6051  -0.6051  -0.5883  -0.5883
    -0.3751  -0.3751  -0.3724  -0.3723   0.2467   0.2512

          k =-0.5000 0.0924-0.0011 ( 29072 PWs)   bands (ev):

   -63.6363 -63.6363 -63.6363 -63.6363 -39.5642 -39.5642 -39.5642 -39.5642
   -37.2171 -37.2171 -37.2166 -37.2166 -36.8737 -36.8737 -36.8731 -36.8731
   -15.0736 -15.0736 -15.0726 -15.0726 -14.5282 -14.5282 -14.5275 -14.5275
    -8.1980  -8.1980  -8.1950  -8.1950  -7.4728  -7.4728  -7.4668  -7.4668
    -6.5296  -6.5296  -6.5245  -6.5245  -5.8211  -5.8211  -5.8107  -5.8107
    -5.4480  -5.4480  -5.4053  -5.4052  -4.4137  -4.4137  -4.3658  -4.3658
    -3.9140  -3.9140  -3.8794  -3.8794  -0.6278  -0.6278  -0.6119  -0.6119
    -0.2837  -0.2837  -0.2647  -0.2647   0.2833   0.2852

          k =-0.5000 0.1387-0.0017 ( 29054 PWs)   bands (ev):

   -63.6363 -63.6363 -63.6363 -63.6363 -39.5647 -39.5647 -39.5646 -39.5646
   -37.2189 -37.2189 -37.2183 -37.2183 -36.8711 -36.8711 -36.8705 -36.8705
   -15.1070 -15.1070 -15.1059 -15.1059 -14.4866 -14.4866 -14.4859 -14.4859
    -8.4073  -8.4073  -8.4050  -8.4049  -7.4053  -7.4053  -7.3984  -7.3984
    -6.4078  -6.4077  -6.4059  -6.4059  -5.9154  -5.9154  -5.8957  -5.8957
    -5.3221  -5.3221  -5.2654  -5.2654  -4.3990  -4.3990  -4.3408  -4.3408
    -3.8475  -3.8475  -3.8119  -3.8119  -0.6723  -0.6723  -0.6629  -0.6629
    -0.1712  -0.1712  -0.1413  -0.1413   0.3726   0.3797

          k =-0.5000 0.1849-0.0023 ( 29032 PWs)   bands (ev):

   -63.6363 -63.6363 -63.6363 -63.6363 -39.5651 -39.5651 -39.5651 -39.5651
   -37.2206 -37.2206 -37.2201 -37.2201 -36.8685 -36.8685 -36.8680 -36.8680
   -15.1365 -15.1365 -15.1357 -15.1357 -14.4485 -14.4485 -14.4480 -14.4480
    -8.5804  -8.5804  -8.5789  -8.5788  -7.3238  -7.3238  -7.3170  -7.3170
    -6.4032  -6.4032  -6.3940  -6.3939  -5.9255  -5.9255  -5.8998  -5.8998
    -5.1976  -5.1976  -5.1362  -5.1361  -4.4635  -4.4635  -4.4124  -4.4124
    -3.6772  -3.6772  -3.6565  -3.6565  -0.7371  -0.7370  -0.7328  -0.7328
    -0.0740  -0.0740  -0.0478  -0.0478   0.5139   0.5188

          k =-0.5000 0.2311-0.0029 ( 29062 PWs)   bands (ev):

   -63.6363 -63.6363 -63.6363 -63.6363 -39.5654 -39.5654 -39.5654 -39.5654
   -37.2218 -37.2218 -37.2215 -37.2215 -36.8665 -36.8665 -36.8662 -36.8662
   -15.1563 -15.1563 -15.1558 -15.1558 -14.4222 -14.4222 -14.4219 -14.4219
    -8.6923  -8.6923  -8.6915  -8.6915  -7.2501  -7.2501  -7.2455  -7.2455
    -6.4620  -6.4619  -6.4550  -6.4550  -5.8737  -5.8737  -5.8565  -5.8565
    -5.1066  -5.1066  -5.0621  -5.0621  -4.5277  -4.5277  -4.4935  -4.4935
    -3.5164  -3.5164  -3.5076  -3.5076  -0.7999  -0.7999  -0.7985  -0.7985
    -0.0084  -0.0084   0.0058   0.0058   0.6524   0.6530

          k =-0.5000-0.2773 0.0034 ( 29056 PWs)   bands (ev):

   -63.6363 -63.6363 -63.6363 -63.6363 -39.5655 -39.5655 -39.5655 -39.5655
   -37.2221 -37.2221 -37.2221 -37.2221 -36.8657 -36.8657 -36.8657 -36.8657
   -15.1630 -15.1630 -15.1630 -15.1630 -14.4128 -14.4128 -14.4127 -14.4127
    -8.7306  -8.7306  -8.7306  -8.7306  -7.2169  -7.2169  -7.2168  -7.2168
    -6.4913  -6.4913  -6.4913  -6.4913  -5.8399  -5.8399  -5.8399  -5.8399
    -5.0582  -5.0582  -5.0581  -5.0581  -4.5386  -4.5386  -4.5386  -4.5386
    -3.4491  -3.4491  -3.4491  -3.4491  -0.8266  -0.8266  -0.8265  -0.8265
     0.0193   0.0193   0.0193   0.0193   0.7099   0.7099

     the Fermi energy is    -2.7487 ev

!    total energy              =    -363.14534946 Ry
     estimated scf accuracy    <          3.3E-10 Ry
     smearing contrib. (-TS)   =       0.00337040 Ry
     internal energy E=F+TS    =    -363.14871986 Ry

     The total energy is F=E-TS. E is the sum of the following terms:
     one-electron contribution =   -3819.07175670 Ry
     hartree contribution      =    1906.26727084 Ry
     xc contribution           =     -58.84669364 Ry
     ewald contribution        =    1608.50245964 Ry

     convergence has been achieved in  18 iterations

     negative rho (up, down):  2.707E-04 0.000E+00

     Forces acting on atoms (cartesian axes, Ry/au):

     atom    1 type  1   force =     0.00000000   -0.00021117   -0.00213151
     atom    2 type  1   force =     0.00000000    0.00021146    0.00213474
     atom    3 type  2   force =     0.00000000   -0.00073812   -0.01384876
     atom    4 type  2   force =     0.00000000    0.00048328   -0.00943166
     atom    5 type  2   force =     0.00000000    0.00073303    0.01384645
     atom    6 type  2   force =     0.00000000   -0.00047848    0.00943074

     Total force =     0.023919     Total SCF correction =     0.000038


     Computing stress (Cartesian axis) and pressure


     negative rho (up, down):  2.707E-04 0.000E+00
          total   stress  (Ry/bohr**3)                   (kbar)     P=       -8.56
  -0.00006777   0.00000000   0.00000000           -9.97        0.00        0.00
   0.00000000  -0.00006594  -0.00000045            0.00       -9.70       -0.07
   0.00000000  -0.00000045  -0.00004085            0.00       -0.07       -6.01


     BFGS Geometry Optimization
     Energy error            =      0.0E+00 Ry
     Gradient error          =      1.4E-02 Ry/Bohr
     Cell gradient error     =      1.0E+01 kbar

     number of scf cycles    =   1
     number of bfgs steps    =   0

     enthalpy           new  =    -363.1453494593 Ry

     new trust radius        =       0.0206424949 bohr
     new conv_thr            =       0.0000000010 Ry

     new unit-cell volume =   3698.45698 a.u.^3 (   548.05478 Ang^3 )
     density =      0.97011 g/cm^3

CELL_PARAMETERS (angstrom)
   3.171645098   0.000000000   0.000000000
   0.000000000   5.718726619  -0.015712000
   0.000000000   0.375691000  30.215182000

ATOMIC_POSITIONS (crystal)
Mo            0.5000000000        0.4188369406        0.5872646607
Mo            0.0000000000        0.0233260820        0.5925733959
S             0.5000000000        0.1358267210        0.6471434308
S             0.0000000000        0.6405714784        0.6336078464
S             0.0000000000        0.3063378116        0.5326945284
S             0.5000000000        0.8015899664        0.5462301377



     Writing config-only to output data dir ./work/MoS2soc.save/
     NEW-OLD atomic charge density approx. for the potential

     negative rho (up, down):  2.838E-04 0.000E+00
     extrapolated charge   51.82575, renormalised to   52.00000

     total cpu time spent up to now is      965.8 secs

     Self-consistent Calculation

     iteration #  1     ecut=    60.00 Ry     beta= 0.15
     Davidson diagonalization with overlap
     c_bands:  2 eigenvalues not converged
     ethr =  1.00E-06,  avg # of iterations = 10.0

     negative rho (up, down):  2.869E-04 0.000E+00

     total cpu time spent up to now is     1070.4 secs

     total energy              =    -363.07966238 Ry
     estimated scf accuracy    <       0.15622797 Ry

     iteration #  2     ecut=    60.00 Ry     beta= 0.15
     Davidson diagonalization with overlap
     ethr =  3.00E-04,  avg # of iterations =  3.4

     negative rho (up, down):  2.879E-04 0.000E+00

     total cpu time spent up to now is     1119.8 secs

     total energy              =    -363.14879754 Ry
     estimated scf accuracy    <       0.12289889 Ry

     iteration #  3     ecut=    60.00 Ry     beta= 0.15
     Davidson diagonalization with overlap
     ethr =  2.36E-04,  avg # of iterations =  1.0

     negative rho (up, down):  2.882E-04 0.000E+00

     total cpu time spent up to now is     1159.5 secs

     total energy              =    -363.14528695 Ry
     estimated scf accuracy    <       0.04689950 Ry

     iteration #  4     ecut=    60.00 Ry     beta= 0.15
     Davidson diagonalization with overlap
     ethr =  9.02E-05,  avg # of iterations =  1.5

     negative rho (up, down):  2.882E-04 0.000E+00

     total cpu time spent up to now is     1200.2 secs

     total energy              =    -363.14567867 Ry
     estimated scf accuracy    <       0.01095461 Ry

     iteration #  5     ecut=    60.00 Ry     beta= 0.15
     Davidson diagonalization with overlap
     ethr =  2.11E-05,  avg # of iterations =  2.9

     negative rho (up, down):  2.884E-04 0.000E+00

     total cpu time spent up to now is     1243.1 secs

     total energy              =    -363.14639672 Ry
     estimated scf accuracy    <       0.00252927 Ry

     iteration #  6     ecut=    60.00 Ry     beta= 0.15
     Davidson diagonalization with overlap
     ethr =  4.86E-06,  avg # of iterations =  3.5

     negative rho (up, down):  2.887E-04 0.000E+00

     total cpu time spent up to now is     1287.6 secs

     total energy              =    -363.14666062 Ry
     estimated scf accuracy    <       0.00131755 Ry

     iteration #  7     ecut=    60.00 Ry     beta= 0.15
     Davidson diagonalization with overlap
     ethr =  2.53E-06,  avg # of iterations =  1.2

     negative rho (up, down):  2.888E-04 0.000E+00

     total cpu time spent up to now is     1327.7 secs

     total energy              =    -363.14664641 Ry
     estimated scf accuracy    <       0.00139942 Ry

     iteration #  8     ecut=    60.00 Ry     beta= 0.15
     Davidson diagonalization with overlap
     ethr =  2.53E-06,  avg # of iterations =  1.0

     negative rho (up, down):  2.885E-04 0.000E+00

     total cpu time spent up to now is     1367.5 secs

     total energy              =    -363.14652357 Ry
     estimated scf accuracy    <       0.00110648 Ry

     iteration #  9     ecut=    60.00 Ry     beta= 0.15
     Davidson diagonalization with overlap
     ethr =  2.13E-06,  avg # of iterations =  1.4

     negative rho (up, down):  2.884E-04 0.000E+00

     total cpu time spent up to now is     1407.8 secs

     total energy              =    -363.14649538 Ry
     estimated scf accuracy    <       0.00038618 Ry

     iteration # 10     ecut=    60.00 Ry     beta= 0.15
     Davidson diagonalization with overlap
     ethr =  7.43E-07,  avg # of iterations =  3.7

     negative rho (up, down):  2.885E-04 0.000E+00

     total cpu time spent up to now is     1452.5 secs

     total energy              =    -363.14653448 Ry
     estimated scf accuracy    <       0.00003053 Ry

     iteration # 11     ecut=    60.00 Ry     beta= 0.15
     Davidson diagonalization with overlap
     ethr =  5.87E-08,  avg # of iterations =  4.2

     negative rho (up, down):  2.886E-04 0.000E+00

     total cpu time spent up to now is     1502.3 secs

     total energy              =    -363.14654330 Ry
     estimated scf accuracy    <       0.00000085 Ry

     iteration # 12     ecut=    60.00 Ry     beta= 0.15
     Davidson diagonalization with overlap
     ethr =  1.63E-09,  avg # of iterations =  5.0

     negative rho (up, down):  2.888E-04 0.000E+00

     total cpu time spent up to now is     1556.1 secs

     total energy              =    -363.14654380 Ry
     estimated scf accuracy    <       0.00000013 Ry

     iteration # 13     ecut=    60.00 Ry     beta= 0.15
     Davidson diagonalization with overlap
     ethr =  2.54E-10,  avg # of iterations =  5.0

     negative rho (up, down):  2.889E-04 0.000E+00

     total cpu time spent up to now is     1610.0 secs

     total energy              =    -363.14654375 Ry
     estimated scf accuracy    <       0.00000119 Ry

     iteration # 14     ecut=    60.00 Ry     beta= 0.15
     Davidson diagonalization with overlap
     ethr =  2.54E-10,  avg # of iterations =  2.3

     negative rho (up, down):  2.890E-04 0.000E+00

     total cpu time spent up to now is     1655.0 secs

     total energy              =    -363.14654372 Ry
     estimated scf accuracy    <       0.00000038 Ry

     iteration # 15     ecut=    60.00 Ry     beta= 0.15
     Davidson diagonalization with overlap
     ethr =  2.54E-10,  avg # of iterations =  3.1

     negative rho (up, down):  2.891E-04 0.000E+00

     total cpu time spent up to now is     1700.9 secs

     total energy              =    -363.14654373 Ry
     estimated scf accuracy    <       0.00000005 Ry

     iteration # 16     ecut=    60.00 Ry     beta= 0.15
     Davidson diagonalization with overlap
     ethr =  9.95E-11,  avg # of iterations =  2.4

     negative rho (up, down):  2.891E-04 0.000E+00

     total cpu time spent up to now is     1743.7 secs

     total energy              =    -363.14654373 Ry
     estimated scf accuracy    <       0.00000001 Ry

     iteration # 17     ecut=    60.00 Ry     beta= 0.15
     Davidson diagonalization with overlap
     ethr =  2.86E-11,  avg # of iterations =  4.9

     negative rho (up, down):  2.892E-04 0.000E+00

     total cpu time spent up to now is     1794.7 secs

     total energy              =    -363.14654374 Ry
     estimated scf accuracy    <          2.4E-09 Ry

     iteration # 18     ecut=    60.00 Ry     beta= 0.15
     Davidson diagonalization with overlap
     ethr =  4.53E-12,  avg # of iterations =  1.5

     negative rho (up, down):  2.894E-04 0.000E+00

     total cpu time spent up to now is     1835.2 secs

     End of self-consistent calculation

          k = 0.0000 0.0000 0.0000 ( 29195 PWs)   bands (ev):

   -63.6856 -63.6856 -63.5826 -63.5826 -39.5813 -39.5813 -39.3750 -39.3750
   -37.2186 -37.2186 -36.9601 -36.9601 -36.9487 -36.9487 -36.7238 -36.7238
   -16.7053 -16.7053 -15.6069 -15.6069 -14.9365 -14.9365 -14.8093 -14.8093
    -8.7131  -8.7131  -8.0242  -8.0242  -7.2535  -7.2535  -7.1480  -7.1480
    -6.0211  -6.0211  -5.9135  -5.9135  -5.5309  -5.5309  -5.1284  -5.1284
    -4.5475  -4.5475  -3.9145  -3.9145  -3.6583  -3.6583  -3.0837  -3.0837
    -2.9915  -2.9915  -2.7461  -2.7461  -2.2081  -2.2081  -1.9053  -1.9053
    -0.6456  -0.6456  -0.3756  -0.3756   0.8854   0.8854

          k = 0.0000 0.0463-0.0006 ( 29197 PWs)   bands (ev):

   -63.6855 -63.6855 -63.5827 -63.5827 -39.5805 -39.5805 -39.3755 -39.3755
   -37.2170 -37.2170 -36.9604 -36.9604 -36.9487 -36.9487 -36.7255 -36.7255
   -16.6813 -16.6813 -15.6059 -15.6059 -14.9597 -14.9597 -14.8255 -14.8255
    -8.6830  -8.6830  -7.9724  -7.9724  -7.4462  -7.4462  -6.9238  -6.9238
    -6.0162  -6.0162  -5.8920  -5.8920  -5.6255  -5.6255  -5.1522  -5.1522
    -4.5034  -4.5034  -3.9165  -3.9165  -3.6754  -3.6754  -3.1334  -3.1334
    -2.9997  -2.9997  -2.8111  -2.8111  -2.1975  -2.1975  -1.9422  -1.9422
    -0.6306  -0.6306  -0.3544  -0.3544   0.7476   0.7476

          k = 0.0000 0.0926-0.0012 ( 29168 PWs)   bands (ev):

   -63.6852 -63.6852 -63.5830 -63.5830 -39.5785 -39.5785 -39.3771 -39.3771
   -37.2128 -37.2128 -36.9611 -36.9611 -36.9490 -36.9490 -36.7300 -36.7300
   -16.6105 -16.6105 -15.6052 -15.6052 -15.0419 -15.0419 -14.8533 -14.8533
    -8.5930  -8.5930  -7.8793  -7.8793  -7.5683  -7.5683  -6.6866  -6.6866
    -5.9992  -5.9992  -5.8521  -5.8521  -5.8179  -5.8179  -5.1938  -5.1938
    -4.4430  -4.4430  -3.9329  -3.9329  -3.7235  -3.7235  -3.2041  -3.2041
    -3.0834  -3.0834  -2.9619  -2.9619  -2.1997  -2.1997  -2.0245  -2.0245
    -0.5969  -0.5969  -0.2801  -0.2801   0.5120   0.5120

          k = 0.0000 0.1389-0.0017 ( 29171 PWs)   bands (ev):

   -63.6848 -63.6848 -63.5834 -63.5834 -39.5757 -39.5757 -39.3792 -39.3792
   -37.2067 -37.2067 -36.9620 -36.9620 -36.9494 -36.9494 -36.7364 -36.7364
   -16.4960 -16.4960 -15.6133 -15.6133 -15.1783 -15.1783 -14.8744 -14.8744
    -8.4470  -8.4470  -7.9279  -7.9279  -7.4146  -7.4146  -6.5980  -6.5980
    -6.0299  -6.0299  -5.9701  -5.9701  -5.7500  -5.7500  -5.1727  -5.1727
    -4.4813  -4.4813  -3.9663  -3.9663  -3.7916  -3.7916  -3.2469  -3.2469
    -3.2284  -3.2284  -3.1396  -3.1396  -2.2366  -2.2366  -2.1212  -2.1212
    -0.5559  -0.5559  -0.1488  -0.1488   0.2626   0.2626

          k = 0.0000 0.1852-0.0023 ( 29188 PWs)   bands (ev):

   -63.6844 -63.6844 -63.5839 -63.5839 -39.5728 -39.5728 -39.3815 -39.3815
   -37.2005 -37.2005 -36.9631 -36.9631 -36.9498 -36.9498 -36.7428 -36.7428
   -16.3433 -16.3433 -15.6563 -15.6563 -15.3216 -15.3216 -14.8898 -14.8898
    -8.2665  -8.2665  -7.9986  -7.9986  -7.1914  -7.1914  -6.6741  -6.6741
    -6.1218  -6.1218  -5.9371  -5.9371  -5.6641  -5.6641  -5.0506  -5.0506
    -4.6704  -4.6704  -3.9640  -3.9640  -3.8603  -3.8603  -3.3793  -3.3793
    -3.3315  -3.3315  -3.2472  -3.2472  -2.2907  -2.2907  -2.2267  -2.2267
    -0.4964  -0.4964   0.0028   0.0028   0.0552   0.0552

          k = 0.0000 0.2315-0.0029 ( 29192 PWs)   bands (ev):

   -63.6841 -63.6841 -63.5842 -63.5842 -39.5707 -39.5707 -39.3831 -39.3831
   -37.1958 -37.1958 -36.9639 -36.9639 -36.9501 -36.9501 -36.7475 -36.7475
   -16.1614 -16.1614 -15.7785 -15.7785 -15.4060 -15.4060 -14.9000 -14.9000
    -8.1672  -8.1672  -7.9230  -7.9230  -7.2560  -7.2560  -6.5529  -6.5529
    -6.1742  -6.1742  -5.9098  -5.9098  -5.5965  -5.5965  -5.0884  -5.0884
    -4.7476  -4.7476  -3.9119  -3.9119  -3.8875  -3.8875  -3.5325  -3.5325
    -3.4633  -3.4633  -3.2688  -3.2688  -2.3545  -2.3545  -2.3005  -2.3005
    -0.4065  -0.4065  -0.1263  -0.1263   0.1582   0.1582

          k = 0.0000-0.2778 0.0035 ( 29200 PWs)   bands (ev):

   -63.6840 -63.6840 -63.5843 -63.5843 -39.5699 -39.5699 -39.3838 -39.3838
   -37.1940 -37.1940 -36.9643 -36.9643 -36.9502 -36.9502 -36.7493 -36.7493
   -15.9710 -15.9710 -15.9569 -15.9569 -15.4269 -15.4269 -14.9036 -14.9036
    -8.1654  -8.1654  -7.7889  -7.7889  -7.4023  -7.4023  -6.4150  -6.4150
    -6.1953  -6.1953  -5.8990  -5.8990  -5.5705  -5.5705  -5.2269  -5.2269
    -4.6894  -4.6894  -3.9262  -3.9262  -3.7809  -3.7809  -3.6702  -3.6702
    -3.5142  -3.5142  -3.2776  -3.2776  -2.3901  -2.3901  -2.3195  -2.3195
    -0.3255  -0.3255  -0.2265  -0.2265   0.2180   0.2180

          k = 0.0835 0.0000 0.0000 ( 29155 PWs)   bands (ev):

   -63.6825 -63.6825 -63.5830 -63.5830 -39.5819 -39.5819 -39.3827 -39.3827
   -37.2213 -37.2213 -36.9745 -36.9745 -36.9444 -36.9444 -36.7308 -36.7308
   -16.6228 -16.6228 -15.5742 -15.5742 -14.8913 -14.8913 -14.8011 -14.8011
    -8.6151  -8.6151  -7.9376  -7.9376  -7.3027  -7.3027  -7.1231  -7.1231
    -6.0969  -6.0969  -6.0591  -6.0591  -5.4725  -5.4725  -5.1183  -5.1183
    -4.7530  -4.7530  -4.0942  -4.0942  -3.4772  -3.4772  -3.3380  -3.3380
    -3.1924  -3.1924  -2.6467  -2.6467  -2.5935  -2.5935  -1.6317  -1.6317
    -0.4692  -0.4692  -0.3348  -0.3348   0.5723   0.5723

          k = 0.0835 0.0463-0.0006 ( 29178 PWs)   bands (ev):

   -63.6824 -63.6824 -63.5831 -63.5831 -39.5812 -39.5812 -39.3832 -39.3832
   -37.2199 -37.2199 -36.9749 -36.9749 -36.9443 -36.9443 -36.7323 -36.7323
   -16.5994 -16.5994 -15.5727 -15.5727 -14.9173 -14.9173 -14.8140 -14.8140
    -8.5830  -8.5830  -7.8840  -7.8840  -7.4641  -7.4641  -6.9372  -6.9372
    -6.1171  -6.1171  -6.0568  -6.0568  -5.5095  -5.5095  -5.1436  -5.1436
    -4.7330  -4.7330  -4.0953  -4.0953  -3.5455  -3.5455  -3.3204  -3.3204
    -3.2236  -3.2236  -2.7122  -2.7122  -2.5573  -2.5573  -1.6318  -1.6318
    -0.4611  -0.4611  -0.3410  -0.3410   0.4881   0.4881

          k = 0.0835 0.0926-0.0012 ( 29174 PWs)   bands (ev):

   -63.6821 -63.6821 -63.5834 -63.5834 -39.5793 -39.5793 -39.3847 -39.3847
   -37.2160 -37.2160 -36.9759 -36.9759 -36.9441 -36.9441 -36.7364 -36.7364
   -16.5301 -16.5301 -15.5703 -15.5703 -15.0062 -15.0062 -14.8343 -14.8343
    -8.4885  -8.4885  -7.7700  -7.7700  -7.6057  -7.6057  -6.7010  -6.7010
    -6.1982  -6.1982  -6.0582  -6.0582  -5.5765  -5.5765  -5.1757  -5.1757
    -4.6944  -4.6944  -4.1268  -4.1268  -3.6530  -3.6530  -3.4516  -3.4516
    -3.1938  -3.1938  -2.7953  -2.7953  -2.5495  -2.5495  -1.6647  -1.6647
    -0.4427  -0.4427  -0.3202  -0.3202   0.3366   0.3366

          k = 0.0835 0.1389-0.0017 ( 29156 PWs)   bands (ev):

   -63.6817 -63.6817 -63.5838 -63.5838 -39.5766 -39.5766 -39.3869 -39.3869
   -37.2105 -37.2105 -36.9773 -36.9773 -36.9438 -36.9438 -36.7422 -36.7422
   -16.4180 -16.4180 -15.5738 -15.5738 -15.1475 -15.1475 -14.8511 -14.8511
    -8.3385  -8.3385  -7.8424  -7.8424  -7.4316  -7.4316  -6.5691  -6.5691
    -6.3281  -6.3281  -6.0594  -6.0594  -5.6428  -5.6428  -5.1174  -5.1174
    -4.6655  -4.6655  -4.2036  -4.2036  -3.8699  -3.8699  -3.5279  -3.5279
    -3.1825  -3.1825  -2.8801  -2.8801  -2.5592  -2.5592  -1.7703  -1.7703
    -0.4351  -0.4351  -0.2130  -0.2130   0.1709   0.1709

          k = 0.0835 0.1852-0.0023 ( 29174 PWs)   bands (ev):

   -63.6814 -63.6814 -63.5842 -63.5842 -39.5739 -39.5739 -39.3891 -39.3891
   -37.2048 -37.2048 -36.9788 -36.9788 -36.9436 -36.9436 -36.7480 -36.7480
   -16.2686 -16.2686 -15.6063 -15.6063 -15.2981 -15.2981 -14.8653 -14.8653
    -8.1586  -8.1586  -7.9154  -7.9154  -7.1746  -7.1746  -6.6903  -6.6903
    -6.3366  -6.3366  -6.0491  -6.0491  -5.7177  -5.7177  -4.9631  -4.9631
    -4.6662  -4.6661  -4.2778  -4.2778  -4.1277  -4.1277  -3.5437  -3.5437
    -3.1978  -3.1978  -3.0086  -3.0086  -2.5292  -2.5292  -1.9350  -1.9350
    -0.4166  -0.4166  -0.0680  -0.0680   0.0274   0.0274

          k = 0.0835 0.2315-0.0029 ( 29191 PWs)   bands (ev):

   -63.6811 -63.6811 -63.5845 -63.5845 -39.5719 -39.5719 -39.3907 -39.3907
   -37.2005 -37.2005 -36.9800 -36.9800 -36.9434 -36.9434 -36.7523 -36.7523
   -16.0904 -16.0904 -15.7166 -15.7166 -15.3901 -15.3900 -14.8753 -14.8753
    -8.0762  -8.0762  -7.8178  -7.8178  -7.1858  -7.1858  -6.6326  -6.6326
    -6.3408  -6.3408  -6.0850  -6.0850  -5.7623  -5.7623  -4.8808  -4.8808
    -4.6815  -4.6815  -4.3009  -4.3009  -4.2466  -4.2466  -3.5704  -3.5704
    -3.2263  -3.2262  -3.1453  -3.1453  -2.4621  -2.4621  -2.1053  -2.1053
    -0.3640  -0.3640  -0.1464  -0.1464   0.1155   0.1155

          k = 0.0835-0.2778 0.0035 ( 29202 PWs)   bands (ev):

   -63.6810 -63.6810 -63.5846 -63.5846 -39.5711 -39.5711 -39.3913 -39.3913
   -37.1989 -37.1989 -36.9804 -36.9804 -36.9434 -36.9434 -36.7539 -36.7539
   -15.9085 -15.9085 -15.8851 -15.8851 -15.4121 -15.4121 -14.8790 -14.8790
    -8.0786  -8.0786  -7.6671  -7.6671  -7.3409  -7.3409  -6.4498  -6.4498
    -6.3613  -6.3613  -6.1799  -6.1799  -5.7616  -5.7616  -4.9092  -4.9092
    -4.6725  -4.6725  -4.2961  -4.2960  -4.2388  -4.2388  -3.5948  -3.5948
    -3.2430  -3.2430  -3.2046  -3.2046  -2.4114  -2.4114  -2.1950  -2.1950
    -0.2923  -0.2923  -0.2457  -0.2457   0.1813   0.1813

          k = 0.1669 0.0000 0.0000 ( 29223 PWs)   bands (ev):

   -63.6738 -63.6738 -63.5845 -63.5845 -39.5834 -39.5834 -39.4048 -39.4048
   -37.2286 -37.2286 -37.0061 -37.0061 -36.9402 -36.9402 -36.7487 -36.7487
   -16.3846 -16.3846 -15.4856 -15.4856 -14.7861 -14.7861 -14.7612 -14.7612
    -8.3544  -8.3544  -7.7988  -7.7988  -7.3209  -7.3209  -7.1106  -7.1106
    -6.3387  -6.3387  -6.0283  -6.0283  -5.5218  -5.5218  -5.4084  -5.4084
    -5.1544  -5.1544  -4.3205  -4.3205  -4.2121  -4.2121  -3.4063  -3.4063
    -3.3041  -3.3041  -2.8876  -2.8876  -2.4278  -2.4278  -1.4680  -1.4680
    -0.2129  -0.2129  -0.1124  -0.1124   0.2694   0.2694

          k = 0.1669 0.0463-0.0006 ( 29194 PWs)   bands (ev):

   -63.6737 -63.6737 -63.5845 -63.5845 -39.5828 -39.5828 -39.4053 -39.4053
   -37.2275 -37.2275 -37.0067 -37.0067 -36.9399 -36.9399 -36.7498 -36.7498
   -16.3629 -16.3629 -15.4832 -15.4832 -14.8272 -14.8272 -14.7568 -14.7568
    -8.3163  -8.3163  -7.7751  -7.7751  -7.3972  -7.3972  -7.0229  -7.0229
    -6.3377  -6.3377  -6.0280  -6.0280  -5.5913  -5.5913  -5.3612  -5.3612
    -5.1456  -5.1456  -4.5217  -4.5217  -4.0328  -4.0328  -3.4356  -3.4356
    -3.3157  -3.3157  -2.9561  -2.9561  -2.3746  -2.3746  -1.4484  -1.4484
    -0.2460  -0.2460  -0.1150  -0.1150   0.1103   0.1103

          k = 0.1669 0.0926-0.0012 ( 29190 PWs)   bands (ev):

   -63.6734 -63.6734 -63.5848 -63.5848 -39.5812 -39.5812 -39.4068 -39.4068
   -37.2246 -37.2246 -37.0082 -37.0082 -36.9388 -36.9388 -36.7528 -36.7528
   -16.2986 -16.2986 -15.4770 -15.4770 -14.9253 -14.9253 -14.7626 -14.7626
    -8.2067  -8.2067  -7.7304  -7.7304  -7.4692  -7.4692  -6.8984  -6.8984
    -6.3466  -6.3466  -6.0482  -6.0482  -5.7069  -5.7069  -5.3104  -5.3104
    -5.0968  -5.0968  -4.7370  -4.7370  -3.8679  -3.8679  -3.5604  -3.5604
    -3.3122  -3.3122  -3.0683  -3.0683  -2.2899  -2.2899  -1.4371  -1.4371
    -0.3184  -0.3184  -0.1138  -0.1138  -0.0077  -0.0077

          k = 0.1669 0.1389-0.0017 ( 29174 PWs)   bands (ev):

   -63.6730 -63.6730 -63.5852 -63.5852 -39.5789 -39.5789 -39.4088 -39.4088
   -37.2204 -37.2204 -37.0104 -37.0103 -36.9374 -36.9374 -36.7570 -36.7570
   -16.1947 -16.1947 -15.4709 -15.4709 -15.0668 -15.0668 -14.7758 -14.7758
    -8.0393  -8.0393  -7.7414  -7.7414  -7.4037  -7.4037  -6.8087  -6.8087
    -6.4181  -6.4181  -6.1027  -6.1027  -5.8246  -5.8246  -5.2858  -5.2858
    -5.0331  -5.0331  -4.7954  -4.7954  -3.9294  -3.9294  -3.6204  -3.6204
    -3.2919  -3.2919  -3.1429  -3.1429  -2.2504  -2.2504  -1.5083  -1.5083
    -0.3498  -0.3498  -0.1042  -0.1042  -0.0550  -0.0549

          k = 0.1669 0.1852-0.0023 ( 29131 PWs)   bands (ev):

   -63.6727 -63.6727 -63.5855 -63.5855 -39.5766 -39.5766 -39.4108 -39.4108
   -37.2162 -37.2162 -37.0126 -37.0125 -36.9360 -36.9360 -36.7612 -36.7612
   -16.0561 -16.0561 -15.4771 -15.4771 -15.2278 -15.2278 -14.7907 -14.7907
    -7.8630  -7.8630  -7.7469  -7.7469  -7.2388  -7.2388  -6.7698  -6.7698
    -6.6062  -6.6062  -6.1251  -6.1251  -5.9544  -5.9544  -5.3269  -5.3269
    -4.9180  -4.9180  -4.6781  -4.6781  -4.1843  -4.1843  -3.5739  -3.5739
    -3.2711  -3.2711  -3.1982  -3.1982  -2.2577  -2.2577  -1.6501  -1.6501
    -0.3500  -0.3500  -0.1158  -0.1158  -0.0190  -0.0190

          k = 0.1669 0.2315-0.0029 ( 29117 PWs)   bands (ev):

   -63.6724 -63.6724 -63.5858 -63.5858 -39.5749 -39.5749 -39.4124 -39.4124
   -37.2130 -37.2130 -37.0142 -37.0142 -36.9349 -36.9349 -36.7644 -36.7644
   -15.8911 -15.8911 -15.5449 -15.5449 -15.3447 -15.3447 -14.8023 -14.8023
    -7.8505  -7.8505  -7.5408  -7.5408  -7.0775  -7.0775  -6.9208  -6.9208
    -6.6876  -6.6876  -6.2013  -6.2013  -6.0071  -6.0071  -5.3645  -5.3645
    -4.8037  -4.8037  -4.5473  -4.5473  -4.3665  -4.3665  -3.5544  -3.5544
    -3.2785  -3.2785  -3.2473  -3.2473  -2.2677  -2.2677  -1.7870  -1.7870
    -0.3635  -0.3635  -0.1352  -0.1352   0.0693   0.0693

          k = 0.1669-0.2778 0.0035 ( 29124 PWs)   bands (ev):

   -63.6723 -63.6723 -63.5859 -63.5859 -39.5742 -39.5742 -39.4130 -39.4130
   -37.2118 -37.2118 -37.0148 -37.0148 -36.9345 -36.9345 -36.7656 -36.7656
   -15.7375 -15.7375 -15.6793 -15.6793 -15.3709 -15.3709 -14.8066 -14.8066
    -7.8589  -7.8589  -7.3341  -7.3341  -7.1628  -7.1628  -6.9757  -6.9757
    -6.6689  -6.6689  -6.2809  -6.2809  -5.9943  -5.9943  -5.3753  -5.3753
    -4.7765  -4.7765  -4.5225  -4.5225  -4.3791  -4.3791  -3.5522  -3.5522
    -3.2928  -3.2928  -3.2704  -3.2704  -2.2657  -2.2657  -1.8451  -1.8451
    -0.3742  -0.3742  -0.1422  -0.1422   0.1210   0.1210

          k = 0.2504 0.0000 0.0000 ( 29159 PWs)   bands (ev):

   -63.6605 -63.6605 -63.5876 -63.5876 -39.5838 -39.5838 -39.4382 -39.4382
   -37.2368 -37.2368 -37.0524 -37.0524 -36.9310 -36.9310 -36.7723 -36.7723
   -16.0192 -16.0192 -15.3638 -15.3638 -14.7690 -14.7690 -14.5903 -14.5903
    -8.0577  -8.0577  -7.8631  -7.8631  -7.1058  -7.1058  -7.0050  -7.0050
    -6.7060  -6.7060  -6.0160  -6.0160  -5.9073  -5.9073  -5.6401  -5.6401
    -5.2217  -5.2217  -5.0914  -5.0914  -4.8004  -4.8004  -3.6892  -3.6892
    -3.2962  -3.2962  -3.1564  -3.1564  -2.0248  -2.0248  -1.2842  -1.2842
    -0.2892  -0.2892   0.0311   0.0311   0.3125   0.3135

          k = 0.2504 0.0463-0.0006 ( 29180 PWs)   bands (ev):

   -63.6605 -63.6605 -63.5877 -63.5877 -39.5834 -39.5834 -39.4387 -39.4387
   -37.2362 -37.2362 -37.0532 -37.0532 -36.9304 -36.9304 -36.7729 -36.7729
   -16.0010 -16.0010 -15.3605 -15.3605 -14.7939 -14.7939 -14.5962 -14.5962
    -8.0505  -8.0505  -7.8229  -7.8229  -7.1200  -7.1200  -7.0693  -7.0693
    -6.6146  -6.6146  -6.0518  -6.0518  -5.9207  -5.9207  -5.5887  -5.5887
    -5.3825  -5.3825  -5.1102  -5.1102  -4.6205  -4.6205  -3.6836  -3.6836
    -3.3484  -3.3484  -3.1926  -3.1926  -1.9951  -1.9951  -1.2628  -1.2628
    -0.2973  -0.2973   0.0400   0.0400   0.0947   0.0948

          k = 0.2504 0.0926-0.0012 ( 29160 PWs)   bands (ev):

   -63.6603 -63.6603 -63.5879 -63.5879 -39.5822 -39.5822 -39.4400 -39.4400
   -37.2344 -37.2344 -37.0551 -37.0551 -36.9285 -36.9285 -36.7744 -36.7744
   -15.9472 -15.9472 -15.3511 -15.3511 -14.8655 -14.8655 -14.6127 -14.6127
    -8.0175  -8.0175  -7.7187  -7.7187  -7.1908  -7.1908  -7.1267  -7.1267
    -6.4610  -6.4610  -6.1160  -6.1160  -5.9705  -5.9705  -5.7372  -5.7372
    -5.3713  -5.3713  -5.0979  -5.0979  -4.3706  -4.3706  -3.6645  -3.6645
    -3.4902  -3.4902  -3.2765  -3.2765  -1.9253  -1.9253  -1.2333  -1.2333
    -0.3172  -0.3172  -0.0782  -0.0782   0.0849   0.0849

          k = 0.2504 0.1389-0.0017 ( 29141 PWs)   bands (ev):

   -63.6600 -63.6600 -63.5881 -63.5881 -39.5806 -39.5806 -39.4418 -39.4418
   -37.2320 -37.2320 -37.0579 -37.0579 -36.9260 -36.9260 -36.7765 -36.7765
   -15.8606 -15.8606 -15.3378 -15.3378 -14.9757 -14.9757 -14.6365 -14.6365
    -7.9474  -7.9474  -7.5810  -7.5810  -7.2711  -7.2711  -7.1508  -7.1508
    -6.3562  -6.3562  -6.2195  -6.2195  -6.0928  -6.0928  -5.9030  -5.9030
    -5.2096  -5.2096  -5.0155  -5.0155  -4.2202  -4.2202  -3.6609  -3.6609
    -3.6001  -3.6001  -3.3741  -3.3741  -1.8695  -1.8695  -1.2542  -1.2542
    -0.3456  -0.3456  -0.1340  -0.1340   0.1291   0.1291

          k = 0.2504 0.1852-0.0023 ( 29133 PWs)   bands (ev):

   -63.6597 -63.6597 -63.5884 -63.5884 -39.5789 -39.5789 -39.4436 -39.4436
   -37.2296 -37.2296 -37.0607 -37.0607 -36.9233 -36.9233 -36.7787 -36.7787
   -15.7459 -15.7459 -15.3239 -15.3239 -15.1131 -15.1131 -14.6614 -14.6614
    -7.8421  -7.8421  -7.4609  -7.4609  -7.3280  -7.3280  -7.1322  -7.1322
    -6.4596  -6.4596  -6.3726  -6.3726  -6.1623  -6.1623  -5.8826  -5.8826
    -5.0883  -5.0883  -4.8685  -4.8685  -4.2418  -4.2418  -3.7145  -3.7145
    -3.5214  -3.5214  -3.4603  -3.4603  -1.8727  -1.8727  -1.3297  -1.3297
    -0.3869  -0.3869  -0.0805  -0.0805   0.1695   0.1695

          k = 0.2504 0.2315-0.0029 ( 29077 PWs)   bands (ev):

   -63.6594 -63.6594 -63.5886 -63.5886 -39.5776 -39.5776 -39.4450 -39.4450
   -37.2278 -37.2278 -37.0627 -37.0627 -36.9214 -36.9213 -36.7804 -36.7804
   -15.6125 -15.6125 -15.3163 -15.3163 -15.2596 -15.2596 -14.6804 -14.6804
    -7.7184  -7.7184  -7.4475  -7.4475  -7.3455  -7.3455  -7.0237  -7.0237
    -6.6753  -6.6753  -6.5116  -6.5116  -6.1503  -6.1503  -5.8136  -5.8136
    -5.0438  -5.0438  -4.7397  -4.7397  -4.3057  -4.3057  -3.7112  -3.7112
    -3.5266  -3.5266  -3.4338  -3.4338  -1.9163  -1.9163  -1.4113  -1.4113
    -0.4229  -0.4229   0.0326   0.0326   0.1881   0.1881

          k = 0.2504-0.2778 0.0035 ( 29078 PWs)   bands (ev):

   -63.6594 -63.6594 -63.5887 -63.5887 -39.5772 -39.5772 -39.4455 -39.4455
   -37.2271 -37.2271 -37.0635 -37.0635 -36.9206 -36.9206 -36.7810 -36.7810
   -15.5119 -15.5119 -15.3755 -15.3755 -15.3028 -15.3028 -14.6875 -14.6875
    -7.6396  -7.6396  -7.4885  -7.4885  -7.3435  -7.3435  -6.8873  -6.8873
    -6.8260  -6.8260  -6.5861  -6.5861  -6.1425  -6.1425  -5.7767  -5.7767
    -5.0485  -5.0485  -4.6902  -4.6902  -4.3216  -4.3216  -3.7044  -3.7044
    -3.5432  -3.5432  -3.4080  -3.4080  -1.9404  -1.9404  -1.4463  -1.4463
    -0.4374  -0.4374   0.1286   0.1286   0.1623   0.1623

          k = 0.3339 0.0000 0.0000 ( 29077 PWs)   bands (ev):

   -63.6448 -63.6448 -63.5932 -63.5932 -39.5803 -39.5803 -39.4775 -39.4775
   -37.2391 -37.2391 -37.1072 -37.1072 -36.9129 -36.9129 -36.7989 -36.7989
   -15.5800 -15.5800 -15.2328 -15.2328 -14.7677 -14.7677 -14.4435 -14.4435
    -7.9180  -7.9180  -7.8989  -7.8989  -7.4266  -7.4266  -6.7832  -6.7832
    -6.6473  -6.6473  -6.4510  -6.4510  -6.0885  -6.0885  -5.8659  -5.8659
    -5.4928  -5.4928  -5.1884  -5.1884  -5.0058  -5.0058  -4.0685  -4.0685
    -3.4790  -3.4790  -3.4298  -3.4298  -1.4639  -1.4639  -1.0054  -1.0054
    -0.3590  -0.3590  -0.0644  -0.0644   0.2494   0.2494

          k = 0.3339 0.0463-0.0006 ( 29096 PWs)   bands (ev):

   -63.6448 -63.6448 -63.5932 -63.5932 -39.5800 -39.5800 -39.4779 -39.4779
   -37.2389 -37.2389 -37.1080 -37.1080 -36.9120 -36.9120 -36.7989 -36.7989
   -15.5699 -15.5699 -15.2278 -15.2278 -14.7856 -14.7856 -14.4448 -14.4448
    -8.0207  -8.0207  -7.8203  -7.8203  -7.3761  -7.3761  -6.8935  -6.8935
    -6.6369  -6.6369  -6.4083  -6.4083  -6.0559  -6.0559  -5.9404  -5.9404
    -5.4607  -5.4607  -5.1924  -5.1924  -4.8847  -4.8847  -4.0566  -4.0566
    -3.5326  -3.5326  -3.4534  -3.4534  -1.4585  -1.4585  -0.9808  -0.9808
    -0.3597  -0.3597  -0.0498  -0.0498   0.2158   0.2158

          k = 0.3339 0.0926-0.0012 ( 29087 PWs)   bands (ev):

   -63.6446 -63.6446 -63.5934 -63.5934 -39.5794 -39.5794 -39.4789 -39.4789
   -37.2384 -37.2384 -37.1101 -37.1101 -36.9097 -36.9097 -36.7989 -36.7989
   -15.5401 -15.5401 -15.2143 -15.2143 -14.8328 -14.8328 -14.4521 -14.4521
    -8.1192  -8.1192  -7.7757  -7.7757  -7.2758  -7.2758  -7.0087  -7.0087
    -6.7350  -6.7350  -6.3345  -6.3345  -6.0967  -6.0967  -5.9488  -5.9488
    -5.3647  -5.3646  -5.1668  -5.1668  -4.6635  -4.6635  -4.0176  -4.0176
    -3.6469  -3.6469  -3.5323  -3.5323  -1.4402  -1.4402  -0.9384  -0.9384
    -0.3560  -0.3560  -0.0169  -0.0169   0.1780   0.1780

          k = 0.3339 0.1389-0.0017 ( 29115 PWs)   bands (ev):

   -63.6444 -63.6444 -63.5936 -63.5936 -39.5785 -39.5785 -39.4804 -39.4804
   -37.2377 -37.2377 -37.1130 -37.1130 -36.9064 -36.9064 -36.7991 -36.7991
   -15.4930 -15.4930 -15.1985 -15.1985 -14.8941 -14.8941 -14.4695 -14.4695
    -8.1821  -8.1821  -7.7618  -7.7618  -7.3109  -7.3109  -6.9414  -6.9414
    -6.8491  -6.8491  -6.3363  -6.3363  -6.2181  -6.2181  -5.8161  -5.8161
    -5.2605  -5.2605  -5.0918  -5.0918  -4.4933  -4.4932  -3.9504  -3.9504
    -3.7533  -3.7533  -3.6202  -3.6202  -1.4266  -1.4266  -0.9285  -0.9285
    -0.3461  -0.3461   0.0203   0.0203   0.1845   0.1845

          k = 0.3339 0.1852-0.0023 ( 29086 PWs)   bands (ev):

   -63.6442 -63.6442 -63.5938 -63.5938 -39.5775 -39.5775 -39.4819 -39.4819
   -37.2369 -37.2369 -37.1159 -37.1159 -36.9031 -36.9031 -36.7993 -36.7993
   -15.4324 -15.4324 -15.1946 -15.1946 -14.9493 -14.9493 -14.4949 -14.4949
    -8.2033  -8.2033  -7.7673  -7.7673  -7.4379  -7.4379  -6.9432  -6.9432
    -6.7626  -6.7626  -6.3709  -6.3709  -6.2845  -6.2845  -5.7211  -5.7211
    -5.1928  -5.1928  -4.9993  -4.9993  -4.4314  -4.4314  -3.9269  -3.9269
    -3.7949  -3.7949  -3.5972  -3.5972  -1.4493  -1.4493  -0.9646  -0.9646
    -0.3475  -0.3475   0.0875   0.0876   0.2308   0.2308

          k = 0.3339 0.2315-0.0029 ( 29090 PWs)   bands (ev):

   -63.6441 -63.6441 -63.5939 -63.5939 -39.5768 -39.5768 -39.4830 -39.4830
   -37.2363 -37.2363 -37.1180 -37.1180 -36.9007 -36.9007 -36.7995 -36.7995
   -15.3647 -15.3647 -15.2207 -15.2207 -14.9790 -14.9790 -14.5188 -14.5188
    -8.1935  -8.1935  -7.7884  -7.7884  -7.5381  -7.5381  -7.0051  -7.0051
    -6.5997  -6.5997  -6.3936  -6.3936  -6.3266  -6.3266  -5.6677  -5.6677
    -5.2025  -5.2025  -4.9083  -4.9083  -4.4431  -4.4431  -3.9663  -3.9663
    -3.7535  -3.7535  -3.4971  -3.4971  -1.5005  -1.5005  -1.0192  -1.0192
    -0.3582  -0.3582   0.1879   0.1879   0.2760   0.2760

          k = 0.3339-0.2778 0.0035 ( 29104 PWs)   bands (ev):

[...]
    -7.9600  -7.9600  -7.5778  -7.5778  -7.2566  -7.2566  -7.1160  -7.1160
    -6.2923  -6.2923  -6.1392  -6.1392  -6.0411  -6.0411  -5.8766  -5.8766
    -5.1541  -5.1541  -4.9291  -4.9291  -4.0804  -4.0804  -3.6342  -3.6342
    -3.4707  -3.4707  -3.3178  -3.3178  -1.7450  -1.7450  -1.0925  -1.0925
    -0.2123  -0.2123   0.0758   0.0759   0.3189   0.3189

          k = 0.2541 0.1874-0.0023 ( 28271 PWs)   bands (ev):

   -63.5087 -63.5087 -63.4297 -63.4297 -39.4452 -39.4452 -39.2995 -39.2995
   -37.1052 -37.1052 -36.9261 -36.9261 -36.7866 -36.7866 -36.6275 -36.6275
   -15.7232 -15.7232 -15.2751 -15.2751 -15.0573 -15.0573 -14.6454 -14.6454
    -7.8434  -7.8434  -7.4544  -7.4544  -7.3112  -7.3112  -7.0974  -7.0974
    -6.4005  -6.4005  -6.3204  -6.3204  -6.0912  -6.0912  -5.8399  -5.8399
    -5.0174  -5.0174  -4.7938  -4.7938  -4.1172  -4.1172  -3.6799  -3.6799
    -3.4221  -3.4221  -3.3804  -3.3804  -1.7521  -1.7521  -1.1717  -1.1717
    -0.2434  -0.2434   0.1170   0.1171   0.3617   0.3617

          k = 0.2541 0.2343-0.0029 ( 28278 PWs)   bands (ev):

   -63.5084 -63.5084 -63.4300 -63.4300 -39.4437 -39.4437 -39.3011 -39.3011
   -37.1031 -37.1031 -36.9285 -36.9285 -36.7842 -36.7842 -36.6296 -36.6296
   -15.5791 -15.5791 -15.2643 -15.2643 -15.2159 -15.2159 -14.6704 -14.6704
    -7.7093  -7.7093  -7.4242  -7.4242  -7.3354  -7.3354  -6.9973  -6.9973
    -6.6253  -6.6253  -6.4724  -6.4724  -6.0681  -6.0681  -5.7518  -5.7518
    -4.9698  -4.9698  -4.6725  -4.6725  -4.2031  -4.2031  -3.6620  -3.6620
    -3.4640  -3.4640  -3.3139  -3.3139  -1.8040  -1.8040  -1.2553  -1.2553
    -0.2755  -0.2755   0.2202   0.2202   0.3822   0.3822

          k = 0.2541-0.2811 0.0035 ( 28276 PWs)   bands (ev):

   -63.5083 -63.5083 -63.4301 -63.4301 -39.4431 -39.4431 -39.3017 -39.3017
   -37.1023 -37.1023 -36.9294 -36.9294 -36.7832 -36.7832 -36.6304 -36.6304
   -15.4614 -15.4614 -15.3492 -15.3492 -15.2497 -15.2497 -14.6799 -14.6799
    -7.6295  -7.6295  -7.4514  -7.4514  -7.3374  -7.3374  -6.9044  -6.9044
    -6.7339  -6.7339  -6.5589  -6.5589  -6.0567  -6.0567  -5.7069  -5.7069
    -4.9779  -4.9779  -4.6247  -4.6247  -4.2247  -4.2247  -3.6526  -3.6526
    -3.4770  -3.4770  -3.2874  -3.2874  -1.8326  -1.8326  -1.2909  -1.2909
    -0.2889  -0.2889   0.3003   0.3003   0.3707   0.3707

          k = 0.3388 0.0000 0.0000 ( 28256 PWs)   bands (ev):

   -63.4918 -63.4918 -63.4343 -63.4343 -39.4484 -39.4484 -39.3368 -39.3368
   -37.1173 -37.1173 -36.9755 -36.9755 -36.7779 -36.7779 -36.6507 -36.6507
   -15.5447 -15.5447 -15.1828 -15.1828 -14.6869 -14.6869 -14.3833 -14.3833
    -7.9321  -7.9321  -7.9167  -7.9167  -7.4308  -7.4308  -6.7664  -6.7664
    -6.5736  -6.5736  -6.4207  -6.4207  -6.0321  -6.0321  -5.8455  -5.8455
    -5.4758  -5.4758  -5.1157  -5.1157  -4.8943  -4.8943  -3.9480  -3.9480
    -3.4092  -3.4092  -3.3576  -3.3576  -1.2943  -1.2943  -0.8134  -0.8134
    -0.2627  -0.2627   0.0790   0.0790   0.4581   0.4581

          k = 0.3388 0.0469-0.0006 ( 28253 PWs)   bands (ev):

   -63.4917 -63.4917 -63.4344 -63.4344 -39.4481 -39.4481 -39.3373 -39.3373
   -37.1171 -37.1171 -36.9765 -36.9765 -36.7769 -36.7769 -36.6507 -36.6507
   -15.5341 -15.5341 -15.1763 -15.1763 -14.7086 -14.7086 -14.3837 -14.3837
    -8.0408  -8.0408  -7.8368  -7.8368  -7.3710  -7.3710  -6.8671  -6.8671
    -6.5911  -6.5911  -6.3662  -6.3662  -6.0035  -6.0035  -5.9108  -5.9108
    -5.4449  -5.4449  -5.1137  -5.1137  -4.7701  -4.7701  -3.9411  -3.9411
    -3.4649  -3.4649  -3.3839  -3.3839  -1.2881  -1.2881  -0.7844  -0.7844
    -0.2641  -0.2641   0.0999   0.0999   0.4332   0.4332

          k = 0.3388 0.0937-0.0012 ( 28251 PWs)   bands (ev):

   -63.4916 -63.4916 -63.4345 -63.4345 -39.4473 -39.4473 -39.3386 -39.3386
   -37.1165 -37.1165 -36.9790 -36.9790 -36.7740 -36.7740 -36.6507 -36.6507
   -15.5031 -15.5031 -15.1583 -15.1583 -14.7645 -14.7645 -14.3904 -14.3904
    -8.1427  -8.1427  -7.7947  -7.7947  -7.2542  -7.2542  -6.9789  -6.9789
    -6.7159  -6.7159  -6.2901  -6.2901  -6.0650  -6.0650  -5.8873  -5.8873
    -5.3425  -5.3425  -5.0795  -5.0795  -4.5327  -4.5327  -3.9197  -3.9197
    -3.5810  -3.5810  -3.4715  -3.4715  -1.2685  -1.2685  -0.7329  -0.7329
    -0.2581  -0.2581   0.1463   0.1463   0.3967   0.3967

          k = 0.3388 0.1406-0.0017 ( 28233 PWs)   bands (ev):

   -63.4913 -63.4913 -63.4348 -63.4348 -39.4463 -39.4463 -39.3404 -39.3404
   -37.1157 -37.1157 -36.9825 -36.9825 -36.7699 -36.7699 -36.6509 -36.6509
   -15.4538 -15.4538 -15.1360 -15.1360 -14.8352 -14.8352 -14.4105 -14.4105
    -8.2044  -8.2044  -7.7803  -7.7803  -7.2888  -7.2888  -6.9025  -6.9025
    -6.8468  -6.8468  -6.2986  -6.2986  -6.1844  -6.1844  -5.7384  -5.7384
    -5.2195  -5.2195  -5.0067  -5.0067  -4.3411  -4.3411  -3.8896  -3.8896
    -3.6737  -3.6737  -3.5707  -3.5707  -1.2561  -1.2561  -0.7172  -0.7172
    -0.2372  -0.2372   0.1975   0.1975   0.3925   0.3925

          k = 0.3388 0.1874-0.0023 ( 28237 PWs)   bands (ev):

   -63.4910 -63.4910 -63.4351 -63.4351 -39.4451 -39.4451 -39.3422 -39.3422
   -37.1148 -37.1148 -36.9860 -36.9860 -36.7658 -36.7658 -36.6512 -36.6512
   -15.3897 -15.3897 -15.1281 -15.1281 -14.8953 -14.8953 -14.4422 -14.4422
    -8.2199  -8.2199  -7.7804  -7.7804  -7.4310  -7.4310  -6.9512  -6.9512
    -6.7196  -6.7196  -6.3257  -6.3257  -6.2504  -6.2504  -5.6298  -5.6298
    -5.1237  -5.1237  -4.9312  -4.9312  -4.2806  -4.2806  -3.8789  -3.8789
    -3.7385  -3.7385  -3.5200  -3.5200  -1.2856  -1.2856  -0.7510  -0.7510
    -0.2232  -0.2232   0.2710   0.2710   0.4280   0.4280

          k = 0.3388 0.2343-0.0029 ( 28238 PWs)   bands (ev):

   -63.4908 -63.4908 -63.4353 -63.4353 -39.4443 -39.4443 -39.3436 -39.3436
   -37.1142 -37.1142 -36.9885 -36.9885 -36.7627 -36.7627 -36.6514 -36.6514
   -15.3160 -15.3160 -15.1607 -15.1607 -14.9197 -14.9197 -14.4736 -14.4736
    -8.2023  -8.2023  -7.7905  -7.7905  -7.5532  -7.5532  -7.0189  -7.0189
    -6.5737  -6.5737  -6.3256  -6.3256  -6.2848  -6.2848  -5.5685  -5.5685
    -5.1259  -5.1259  -4.8404  -4.8404  -4.3218  -4.3218  -3.8886  -3.8886
    -3.7258  -3.7258  -3.3988  -3.3988  -1.3468  -1.3468  -0.8039  -0.8039
    -0.2240  -0.2240   0.3733   0.3733   0.4666   0.4666

          k = 0.3388-0.2811 0.0035 ( 28218 PWs)   bands (ev):

   -63.4908 -63.4908 -63.4353 -63.4353 -39.4440 -39.4440 -39.3441 -39.3441
   -37.1140 -37.1140 -36.9895 -36.9895 -36.7616 -36.7616 -36.6515 -36.6515
   -15.2567 -15.2567 -15.2103 -15.2103 -14.9214 -14.9214 -14.4873 -14.4873
    -8.1872  -8.1872  -7.8005  -7.8005  -7.5987  -7.5987  -7.0438  -7.0438
    -6.5180  -6.5180  -6.3186  -6.3186  -6.2961  -6.2961  -5.5447  -5.5447
    -5.1546  -5.1546  -4.7866  -4.7866  -4.3617  -4.3617  -3.8989  -3.8989
    -3.6909  -3.6909  -3.3484  -3.3484  -1.3792  -1.3792  -0.8298  -0.8298
    -0.2260  -0.2260   0.4347   0.4347   0.4752   0.4752

          k = 0.4235 0.0000 0.0000 ( 28292 PWs)   bands (ev):

   -63.4735 -63.4735 -63.4437 -63.4437 -39.4373 -39.4373 -39.3796 -39.3796
   -37.1070 -37.1070 -37.0330 -37.0330 -36.7503 -36.7503 -36.6837 -36.6837
   -15.1064 -15.1064 -15.0468 -15.0468 -14.6854 -14.6854 -14.3480 -14.3480
    -7.9412  -7.9412  -7.8986  -7.8986  -7.7316  -7.7316  -7.1991  -7.1991
    -6.6215  -6.6215  -6.4859  -6.4859  -6.1346  -6.1346  -5.8127  -5.8127
    -5.3042  -5.3042  -5.2341  -5.2341  -4.8601  -4.8601  -4.2140  -4.2140
    -3.6538  -3.6538  -3.6014  -3.6014  -0.6545  -0.6545  -0.5228  -0.5228
    -0.1454  -0.1454  -0.1168  -0.1168   0.3204   0.3204

          k = 0.4235 0.0469-0.0006 ( 28276 PWs)   bands (ev):

   -63.4735 -63.4735 -63.4437 -63.4437 -39.4372 -39.4372 -39.3800 -39.3800
   -37.1072 -37.1072 -37.0339 -37.0339 -36.7492 -36.7492 -36.6832 -36.6832
   -15.1292 -15.1292 -15.0260 -15.0260 -14.6911 -14.6911 -14.3385 -14.3385
    -8.1015  -8.1015  -7.8463  -7.8462  -7.7228  -7.7228  -7.1709  -7.1709
    -6.7161  -6.7161  -6.3192  -6.3192  -6.1548  -6.1548  -5.8047  -5.8047
    -5.3543  -5.3543  -5.2189  -5.2189  -4.7299  -4.7299  -4.2041  -4.2041
    -3.7161  -3.7161  -3.5966  -3.5966  -0.6751  -0.6751  -0.4781  -0.4781
    -0.1379  -0.1379  -0.0921  -0.0921   0.3668   0.3668

          k = 0.4235 0.0937-0.0012 ( 28267 PWs)   bands (ev):

   -63.4734 -63.4734 -63.4438 -63.4438 -39.4371 -39.4371 -39.3809 -39.3809
   -37.1079 -37.1079 -37.0362 -37.0362 -36.7463 -36.7463 -36.6817 -36.6817
   -15.1604 -15.1604 -15.0085 -15.0085 -14.6924 -14.6924 -14.3188 -14.3188
    -8.3137  -8.3137  -7.8660  -7.8660  -7.7660  -7.7660  -7.1035  -7.1035
    -6.6952  -6.6952  -6.2401  -6.2401  -6.1296  -6.1296  -5.8081  -5.8081
    -5.3634  -5.3634  -5.1310  -5.1310  -4.5094  -4.5094  -4.1816  -4.1816
    -3.8141  -3.8141  -3.6187  -3.6187  -0.7028  -0.7028  -0.4149  -0.4149
    -0.1168  -0.1168  -0.0144  -0.0144   0.4606   0.4606

          k = 0.4235 0.1406-0.0017 ( 28261 PWs)   bands (ev):

   -63.4732 -63.4732 -63.4440 -63.4440 -39.4369 -39.4369 -39.3822 -39.3822
   -37.1088 -37.1088 -37.0392 -37.0392 -36.7422 -36.7422 -36.6798 -36.6798
   -15.1809 -15.1809 -15.0232 -15.0232 -14.6660 -14.6660 -14.3037 -14.3037
    -8.4973  -8.4973  -8.0524  -8.0524  -7.7151  -7.7151  -7.0433  -7.0433
    -6.5765  -6.5765  -6.3156  -6.3156  -6.0956  -6.0956  -5.7767  -5.7767
    -5.2873  -5.2873  -4.9902  -4.9902  -4.3686  -4.3686  -4.1777  -4.1777
    -3.8304  -3.8304  -3.6185  -3.6185  -0.7373  -0.7373  -0.4029  -0.4029
    -0.0792  -0.0792   0.1083   0.1083   0.4971   0.4971

          k = 0.4235 0.1874-0.0023 ( 28240 PWs)   bands (ev):

   -63.4731 -63.4731 -63.4441 -63.4441 -39.4367 -39.4367 -39.3835 -39.3835
   -37.1096 -37.1096 -37.0423 -37.0423 -36.7381 -36.7381 -36.6780 -36.6780
   -15.1864 -15.1864 -15.0627 -15.0627 -14.6172 -14.6172 -14.3016 -14.3016
    -8.6273  -8.6273  -8.2462  -8.2462  -7.6438  -7.6438  -6.9966  -6.9966
    -6.5563  -6.5563  -6.3059  -6.3059  -6.1097  -6.1097  -5.6936  -5.6936
    -5.2485  -5.2485  -4.8421  -4.8421  -4.3519  -4.3519  -4.2419  -4.2419
    -3.7116  -3.7116  -3.5267  -3.5267  -0.7946  -0.7946  -0.4442  -0.4442
    -0.0386  -0.0386   0.2443   0.2443   0.5300   0.5300

          k = 0.4235 0.2343-0.0029 ( 28242 PWs)   bands (ev):

   -63.4730 -63.4730 -63.4442 -63.4442 -39.4366 -39.4366 -39.3845 -39.3845
   -37.1102 -37.1102 -37.0445 -37.0445 -36.7350 -36.7350 -36.6767 -36.6767
   -15.1756 -15.1756 -15.1082 -15.1082 -14.5694 -14.5694 -14.3104 -14.3104
    -8.6978  -8.6978  -8.3867  -8.3867  -7.5797  -7.5797  -6.9785  -6.9785
    -6.6077  -6.6077  -6.2501  -6.2501  -6.1122  -6.1122  -5.5719  -5.5719
    -5.3055  -5.3055  -4.7053  -4.7053  -4.4319  -4.4319  -4.2877  -4.2877
    -3.5727  -3.5727  -3.3993  -3.3993  -0.8604  -0.8604  -0.5022  -0.5022
    -0.0067  -0.0067   0.3450   0.3450   0.5811   0.5811

          k = 0.4235-0.2811 0.0035 ( 28210 PWs)   bands (ev):

   -63.4729 -63.4729 -63.4442 -63.4442 -39.4365 -39.4365 -39.3848 -39.3848
   -37.1104 -37.1104 -37.0453 -37.0453 -36.7339 -36.7339 -36.6763 -36.6763
   -15.1543 -15.1543 -15.1422 -15.1422 -14.5487 -14.5487 -14.3169 -14.3169
    -8.7181  -8.7181  -8.4391  -8.4391  -7.5523  -7.5523  -6.9807  -6.9807
    -6.6247  -6.6247  -6.2324  -6.2324  -6.1109  -6.1109  -5.4473  -5.4473
    -5.4100  -5.4100  -4.5989  -4.5989  -4.5369  -4.5369  -4.2924  -4.2924
    -3.5105  -3.5105  -3.3446  -3.3446  -0.8908  -0.8908  -0.5295  -0.5295
     0.0059   0.0059   0.3807   0.3807   0.6080   0.6080

          k =-0.5082 0.0000 0.0000 ( 28266 PWs)   bands (ev):

   -63.4570 -63.4570 -63.4570 -63.4570 -39.4144 -39.4144 -39.4144 -39.4144
   -37.0787 -37.0787 -37.0787 -37.0787 -36.7177 -36.7177 -36.7177 -36.7177
   -14.9636 -14.9636 -14.9636 -14.9636 -14.5136 -14.5136 -14.5136 -14.5136
    -7.9626  -7.9626  -7.9626  -7.9626  -7.5725  -7.5725  -7.5725  -7.5725
    -6.7325  -6.7325  -6.7325  -6.7325  -5.6211  -5.6211  -5.6211  -5.6211
    -5.5043  -5.5043  -5.5043  -5.5043  -4.4959  -4.4959  -4.4959  -4.4959
    -3.7334  -3.7334  -3.7334  -3.7334  -0.3837  -0.3837  -0.3837  -0.3837
    -0.1369  -0.1369  -0.1369  -0.1368   0.4215   0.4215

          k =-0.5082 0.0469-0.0006 ( 28274 PWs)   bands (ev):

   -63.4570 -63.4570 -63.4570 -63.4570 -39.4146 -39.4146 -39.4146 -39.4146
   -37.0794 -37.0794 -37.0791 -37.0791 -36.7170 -36.7170 -36.7166 -36.7166
   -14.9783 -14.9783 -14.9775 -14.9774 -14.4972 -14.4972 -14.4965 -14.4965
    -8.0526  -8.0526  -8.0499  -8.0499  -7.5641  -7.5641  -7.5602  -7.5602
    -6.6532  -6.6532  -6.6473  -6.6473  -5.6715  -5.6715  -5.6650  -5.6650
    -5.4848  -5.4848  -5.4569  -5.4569  -4.4506  -4.4506  -4.4284  -4.4284
    -3.7643  -3.7643  -3.7496  -3.7496  -0.3797  -0.3797  -0.3506  -0.3506
    -0.1260  -0.1260  -0.1169  -0.1169   0.4304   0.4305

          k =-0.5082 0.0937-0.0012 ( 28274 PWs)   bands (ev):

   -63.4570 -63.4570 -63.4570 -63.4570 -39.4151 -39.4151 -39.4151 -39.4150
   -37.0812 -37.0812 -37.0806 -37.0806 -36.7146 -36.7146 -36.7140 -36.7140
   -15.0135 -15.0135 -15.0121 -15.0121 -14.4556 -14.4556 -14.4546 -14.4546
    -8.2548  -8.2548  -8.2518  -8.2518  -7.5249  -7.5249  -7.5187  -7.5187
    -6.4882  -6.4882  -6.4811  -6.4811  -5.7914  -5.7914  -5.7820  -5.7820
    -5.3867  -5.3867  -5.3407  -5.3407  -4.3452  -4.3452  -4.2986  -4.2986
    -3.8122  -3.8122  -3.7809  -3.7809  -0.3646  -0.3646  -0.3318  -0.3318
    -0.0620  -0.0620  -0.0592  -0.0592   0.4771   0.4801

          k =-0.5082 0.1406-0.0017 ( 28288 PWs)   bands (ev):

   -63.4570 -63.4570 -63.4570 -63.4570 -39.4157 -39.4157 -39.4157 -39.4157
   -37.0834 -37.0834 -37.0827 -37.0827 -36.7113 -36.7113 -36.7106 -36.7106
   -15.0544 -15.0544 -15.0530 -15.0530 -14.4052 -14.4052 -14.4043 -14.4043
    -8.4741  -8.4741  -8.4718  -8.4718  -7.4573  -7.4573  -7.4501  -7.4501
    -6.3585  -6.3585  -6.3573  -6.3573  -5.9018  -5.9018  -5.8823  -5.8823
    -5.2487  -5.2487  -5.1890  -5.1890  -4.2955  -4.2955  -4.2351  -4.2351
    -3.7712  -3.7712  -3.7354  -3.7354  -0.3890  -0.3890  -0.3702  -0.3702
     0.0298   0.0298   0.0507   0.0507   0.5835   0.5839

          k =-0.5082 0.1874-0.0023 ( 28252 PWs)   bands (ev):

   -63.4570 -63.4570 -63.4569 -63.4569 -39.4163 -39.4163 -39.4163 -39.4163
   -37.0855 -37.0855 -37.0849 -37.0849 -36.7079 -36.7079 -36.7073 -36.7073
   -15.0899 -15.0899 -15.0888 -15.0888 -14.3597 -14.3597 -14.3589 -14.3589
    -8.6563  -8.6563  -8.6548  -8.6548  -7.3754  -7.3754  -7.3684  -7.3684
    -6.3627  -6.3627  -6.3527  -6.3527  -5.9059  -5.9059  -5.8789  -5.8788
    -5.1250  -5.1250  -5.0620  -5.0620  -4.3354  -4.3354  -4.2838  -4.2838
    -3.6054  -3.6053  -3.5847  -3.5847  -0.4532  -0.4532  -0.4449  -0.4449
     0.1273   0.1273   0.1496   0.1496   0.7404   0.7439

          k =-0.5082 0.2343-0.0029 ( 28238 PWs)   bands (ev):

   -63.4569 -63.4569 -63.4569 -63.4569 -39.4168 -39.4168 -39.4168 -39.4168
   -37.0870 -37.0869 -37.0866 -37.0866 -36.7054 -36.7054 -36.7051 -36.7051
   -15.1134 -15.1134 -15.1128 -15.1128 -14.3285 -14.3285 -14.3281 -14.3281
    -8.7744  -8.7744  -8.7736  -8.7736  -7.3017  -7.3017  -7.2969  -7.2969
    -6.4337  -6.4337  -6.4264  -6.4264  -5.8368  -5.8368  -5.8185  -5.8185
    -5.0490  -5.0490  -5.0056  -5.0056  -4.3784  -4.3784  -4.3467  -4.3467
    -3.4397  -3.4397  -3.4312  -3.4312  -0.5215  -0.5215  -0.5187  -0.5187
     0.2011   0.2011   0.2139   0.2139   0.8844   0.8872

          k =-0.5082-0.2811 0.0035 ( 28260 PWs)   bands (ev):

   -63.4570 -63.4570 -63.4570 -63.4570 -39.4169 -39.4169 -39.4169 -39.4169
   -37.0873 -37.0873 -37.0873 -37.0873 -36.7044 -36.7044 -36.7044 -36.7044
   -15.1213 -15.1213 -15.1213 -15.1213 -14.3173 -14.3173 -14.3173 -14.3173
    -8.8149  -8.8149  -8.8149  -8.8149  -7.2686  -7.2686  -7.2686  -7.2686
    -6.4669  -6.4669  -6.4669  -6.4669  -5.7949  -5.7949  -5.7949  -5.7949
    -5.0119  -5.0119  -5.0118  -5.0118  -4.3809  -4.3809  -4.3809  -4.3809
    -3.3700  -3.3700  -3.3699  -3.3699  -0.5507  -0.5507  -0.5507  -0.5507
     0.2327   0.2327   0.2327   0.2327   0.9453   0.9453

     the Fermi energy is    -2.5517 ev

!    total energy              =    -363.14868811 Ry
     estimated scf accuracy    <          5.6E-12 Ry
     smearing contrib. (-TS)   =       0.00146260 Ry
     internal energy E=F+TS    =    -363.15015072 Ry

     The total energy is F=E-TS. E is the sum of the following terms:
     one-electron contribution =   -3929.13322887 Ry
     hartree contribution      =    1961.54445616 Ry
     xc contribution           =     -58.99335486 Ry
     ewald contribution        =    1663.43197685 Ry

     convergence has been achieved in  20 iterations

     negative rho (up, down):  2.656E-04 0.000E+00

     Forces acting on atoms (cartesian axes, Ry/au):

     atom    1 type  1   force =     0.00000000    0.00001484   -0.00003536
     atom    2 type  1   force =     0.00000000   -0.00001269    0.00003577
     atom    3 type  2   force =     0.00000000    0.00001299    0.00000607
     atom    4 type  2   force =     0.00000000   -0.00003483    0.00001269
     atom    5 type  2   force =     0.00000000   -0.00001406   -0.00000631
     atom    6 type  2   force =     0.00000000    0.00003375   -0.00001286

     Total force =     0.000078     Total SCF correction =     0.000006


     Computing stress (Cartesian axis) and pressure


     negative rho (up, down):  2.656E-04 0.000E+00
          total   stress  (Ry/bohr**3)                   (kbar)     P=       -0.24
  -0.00000061   0.00000000   0.00000000           -0.09        0.00        0.00
   0.00000000  -0.00000037  -0.00000002            0.00       -0.06       -0.00
   0.00000000  -0.00000002  -0.00000388            0.00       -0.00       -0.57


     Writing all to output data dir ./work/MoS2soc.save/
 
     init_run     :     32.02s CPU     33.01s WALL (       2 calls)
     electrons    :  16062.28s CPU  16484.98s WALL (      19 calls)
     update_pot   :     43.71s CPU     44.09s WALL (      17 calls)
     forces       :    162.01s CPU    166.03s WALL (      19 calls)
     stress       :    758.83s CPU    770.86s WALL (      19 calls)

     Called by init_run:
     wfcinit      :     24.30s CPU     24.80s WALL (       2 calls)
     potinit      :      1.48s CPU      1.52s WALL (       2 calls)
     hinit0       :      3.20s CPU      3.25s WALL (       2 calls)

     Called by electrons:
     c_bands      :  11044.17s CPU  11206.38s WALL (     351 calls)
     sum_band     :   4527.16s CPU   4714.85s WALL (     351 calls)
     v_of_rho     :     22.92s CPU     25.59s WALL (     364 calls)
     newd         :    460.38s CPU    531.02s WALL (     364 calls)
     mix_rho      :     21.10s CPU     22.70s WALL (     351 calls)

     Called by c_bands:
     init_us_2    :    148.69s CPU    149.13s WALL (   36358 calls)
     init_us_2:cp :    148.32s CPU    148.96s WALL (   36358 calls)
     cegterg      :   9498.85s CPU   9659.40s WALL (   17199 calls)

     Called by *egterg:
     cdiaghg      :    254.44s CPU    254.81s WALL (   64899 calls)
     h_psi        :   7091.49s CPU   7245.70s WALL (   66124 calls)
     s_psi        :    587.82s CPU    588.62s WALL (   66124 calls)
     g_psi        :     34.04s CPU     34.15s WALL (   48827 calls)

     Called by h_psi:
     h_psi:calbec :    503.96s CPU    508.33s WALL (   66124 calls)
     vloc_psi     :   5895.07s CPU   6043.52s WALL (   66124 calls)
     add_vuspsi   :    597.89s CPU    598.64s WALL (   66124 calls)

     General routines
     calbec       :    738.59s CPU    744.29s WALL (   87978 calls)
     fft          :     20.55s CPU     25.21s WALL (    8354 calls)
     ffts         :      1.74s CPU      2.06s WALL (    2860 calls)
     fftw         :   4259.27s CPU   4370.99s WALL (12876092 calls)
     interpolate  :      5.32s CPU      6.36s WALL (    1456 calls)
 
     Parallel routines
 
     PWSCF        :      4h44m CPU      4h52m WALL

 
   This run was terminated on:   4: 6:50  13Apr2023            

=------------------------------------------------------------------------------=
   JOB DONE.
=------------------------------------------------------------------------------=
